<event>
 4    1  0.5640637E-004  0.6500000E+04  0.7818608E-02  0.7223770E-01
         52   -1    0    0    0    0  0.00000000000E+00  0.00000000000E+00  0.64930732323E+04  0.65000000000E+04  0.30000000000E+03 0.  1.
        -52   -1    0    0    0    0 -0.00000000000E+00 -0.00000000000E+00 -0.64930732323E+04  0.65000000000E+04  0.30000000000E+03 0. -1.
     100001    1    1    2    0    0  0.40294632672E+03 -0.81960326156E+03 -0.64337574170E+04  0.65000000000E+04  0.15050000000E+03 0. -1.
     100001    1    1    2    0    0 -0.40294632672E+03  0.81960326156E+03  0.64337574170E+04  0.65000000000E+04  0.15050000000E+03 0.  1.
</event>
<event>
 4    1  0.5640637E-004  0.6500000E+04  0.7818608E-02  0.7223770E-01
         52   -1    0    0    0    0  0.00000000000E+00  0.00000000000E+00  0.64930732323E+04  0.65000000000E+04  0.30000000000E+03 0. -1.
        -52   -1    0    0    0    0 -0.00000000000E+00 -0.00000000000E+00 -0.64930732323E+04  0.65000000000E+04  0.30000000000E+03 0.  1.
     100001    1    1    2    0    0  0.11457571337E+04 -0.15592819075E+04 -0.62034853327E+04  0.65000000000E+04  0.15050000000E+03 0.  1.
     100001    1    1    2    0    0 -0.11457571337E+04  0.15592819075E+04  0.62034853327E+04  0.65000000000E+04  0.15050000000E+03 0. -1.
</event>
<event>
 4    1  0.5640637E-004  0.6500000E+04  0.7818608E-02  0.7223770E-01
         52   -1    0    0    0    0  0.00000000000E+00  0.00000000000E+00  0.64930732323E+04  0.65000000000E+04  0.30000000000E+03 0. -1.
        -52   -1    0    0    0    0 -0.00000000000E+00 -0.00000000000E+00 -0.64930732323E+04  0.65000000000E+04  0.30000000000E+03 0.  1.
     100001    1    1    2    0    0 -0.46399634521E+03 -0.23351856363E+04 -0.60464010110E+04  0.65000000000E+04  0.15050000000E+03 0.  1.
     100001    1    1    2    0    0  0.46399634521E+03  0.23351856363E+04  0.60464010110E+04  0.65000000000E+04  0.15050000000E+03 0. -1.
</event>
<event>
 4    1  0.6395982E-004  0.6500000E+04  0.7818608E-02  0.7223770E-01
         52   -1    0    0    0    0  0.00000000000E+00  0.00000000000E+00  0.64930732323E+04  0.65000000000E+04  0.30000000000E+03 0. -1.
        -52   -1    0    0    0    0 -0.00000000000E+00 -0.00000000000E+00 -0.64930732323E+04  0.65000000000E+04  0.30000000000E+03 0. -1.
     100001    1    1    2    0    0  0.70283399641E+02 -0.17707507151E+03 -0.64954641414E+04  0.65000000000E+04  0.15050000000E+03 0. -1.
     100001    1    1    2    0    0 -0.70283399641E+02  0.17707507151E+03  0.64954641414E+04  0.65000000000E+04  0.15050000000E+03 0. -1.
</event>
<event>
 4    1  0.5640637E-004  0.6500000E+04  0.7818608E-02  0.7223770E-01
         52   -1    0    0    0    0  0.00000000000E+00  0.00000000000E+00  0.64930732323E+04  0.65000000000E+04  0.30000000000E+03 0.  1.
        -52   -1    0    0    0    0 -0.00000000000E+00 -0.00000000000E+00 -0.64930732323E+04  0.65000000000E+04  0.30000000000E+03 0. -1.
     100001    1    1    2    0    0 -0.13062379321E+04  0.82951420509E+02 -0.63650774761E+04  0.65000000000E+04  0.15050000000E+03 0. -1.
     100001    1    1    2    0    0  0.13062379321E+04 -0.82951420509E+02  0.63650774761E+04  0.65000000000E+04  0.15050000000E+03 0.  1.
</event>
<event>
 4    1  0.5640637E-004  0.6500000E+04  0.7818608E-02  0.7223770E-01
         52   -1    0    0    0    0  0.00000000000E+00  0.00000000000E+00  0.64930732323E+04  0.65000000000E+04  0.30000000000E+03 0.  1.
        -52   -1    0    0    0    0 -0.00000000000E+00 -0.00000000000E+00 -0.64930732323E+04  0.65000000000E+04  0.30000000000E+03 0. -1.
     100001    1    1    2    0    0 -0.37323829418E+04  0.46939599494E+04  0.25026800274E+04  0.65000000000E+04  0.15050000000E+03 0. -1.
     100001    1    1    2    0    0  0.37323829418E+04 -0.46939599494E+04 -0.25026800274E+04  0.65000000000E+04  0.15050000000E+03 0.  1.
</event>
<event>
 4    1  0.5640637E-004  0.6500000E+04  0.7818608E-02  0.7223770E-01
         52   -1    0    0    0    0  0.00000000000E+00  0.00000000000E+00  0.64930732323E+04  0.65000000000E+04  0.30000000000E+03 0.  1.
        -52   -1    0    0    0    0 -0.00000000000E+00 -0.00000000000E+00 -0.64930732323E+04  0.65000000000E+04  0.30000000000E+03 0. -1.
     100001    1    1    2    0    0  0.46394209612E+03 -0.64366928752E+03  0.64496354416E+04  0.65000000000E+04  0.15050000000E+03 0.  1.
     100001    1    1    2    0    0 -0.46394209612E+03  0.64366928752E+03 -0.64496354416E+04  0.65000000000E+04  0.15050000000E+03 0. -1.
</event>
<event>
 4    1  0.5640637E-004  0.6500000E+04  0.7818608E-02  0.7223770E-01
         52   -1    0    0    0    0  0.00000000000E+00  0.00000000000E+00  0.64930732323E+04  0.65000000000E+04  0.30000000000E+03 0. -1.
        -52   -1    0    0    0    0 -0.00000000000E+00 -0.00000000000E+00 -0.64930732323E+04  0.65000000000E+04  0.30000000000E+03 0.  1.
     100001    1    1    2    0    0 -0.24633623048E+04 -0.57510497594E+03  0.59856871094E+04  0.65000000000E+04  0.15050000000E+03 0. -1.
     100001    1    1    2    0    0  0.24633623048E+04  0.57510497594E+03 -0.59856871094E+04  0.65000000000E+04  0.15050000000E+03 0.  1.
</event>
<event>
 4    1  0.5640637E-004  0.6500000E+04  0.7818608E-02  0.7223770E-01
         52   -1    0    0    0    0  0.00000000000E+00  0.00000000000E+00  0.64930732323E+04  0.65000000000E+04  0.30000000000E+03 0. -1.
        -52   -1    0    0    0    0 -0.00000000000E+00 -0.00000000000E+00 -0.64930732323E+04  0.65000000000E+04  0.30000000000E+03 0.  1.
     100001    1    1    2    0    0  0.13519168914E+04  0.22213593243E+04  0.59552693660E+04  0.65000000000E+04  0.15050000000E+03 0. -1.
     100001    1    1    2    0    0 -0.13519168914E+04 -0.22213593243E+04 -0.59552693660E+04  0.65000000000E+04  0.15050000000E+03 0.  1.
</event>
<event>
 4    1  0.5640637E-004  0.6500000E+04  0.7818608E-02  0.7223770E-01
         52   -1    0    0    0    0  0.00000000000E+00  0.00000000000E+00  0.64930732323E+04  0.65000000000E+04  0.30000000000E+03 0. -1.
        -52   -1    0    0    0    0 -0.00000000000E+00 -0.00000000000E+00 -0.64930732323E+04  0.65000000000E+04  0.30000000000E+03 0.  1.
     100001    1    1    2    0    0  0.70955708515E+03  0.98964322020E+03  0.63831406682E+04  0.65000000000E+04  0.15050000000E+03 0. -1.
     100001    1    1    2    0    0 -0.70955708515E+03 -0.98964322020E+03 -0.63831406682E+04  0.65000000000E+04  0.15050000000E+03 0.  1.
</event>
<event>
 4    1  0.5640637E-004  0.6500000E+04  0.7818608E-02  0.7223770E-01
         52   -1    0    0    0    0  0.00000000000E+00  0.00000000000E+00  0.64930732323E+04  0.65000000000E+04  0.30000000000E+03 0.  1.
        -52   -1    0    0    0    0 -0.00000000000E+00 -0.00000000000E+00 -0.64930732323E+04  0.65000000000E+04  0.30000000000E+03 0. -1.
     100001    1    1    2    0    0 -0.51644465979E+03 -0.88753903402E+03 -0.64166119663E+04  0.65000000000E+04  0.15050000000E+03 0. -1.
     100001    1    1    2    0    0  0.51644465979E+03  0.88753903402E+03  0.64166119663E+04  0.65000000000E+04  0.15050000000E+03 0.  1.
</event>
<event>
 4    1  0.5640637E-004  0.6500000E+04  0.7818608E-02  0.7223770E-01
         52   -1    0    0    0    0  0.00000000000E+00  0.00000000000E+00  0.64930732323E+04  0.65000000000E+04  0.30000000000E+03 0. -1.
        -52   -1    0    0    0    0 -0.00000000000E+00 -0.00000000000E+00 -0.64930732323E+04  0.65000000000E+04  0.30000000000E+03 0.  1.
     100001    1    1    2    0    0 -0.86578965752E+03  0.30527933760E+02  0.64402504660E+04  0.65000000000E+04  0.15050000000E+03 0. -1.
     100001    1    1    2    0    0  0.86578965752E+03 -0.30527933760E+02 -0.64402504660E+04  0.65000000000E+04  0.15050000000E+03 0.  1.
</event>
<event>
 4    1  0.5640637E-004  0.6500000E+04  0.7818608E-02  0.7223770E-01
         52   -1    0    0    0    0  0.00000000000E+00  0.00000000000E+00  0.64930732323E+04  0.65000000000E+04  0.30000000000E+03 0. -1.
        -52   -1    0    0    0    0 -0.00000000000E+00 -0.00000000000E+00 -0.64930732323E+04  0.65000000000E+04  0.30000000000E+03 0.  1.
     100001    1    1    2    0    0 -0.14147711035E+04 -0.27263780233E+04  0.57264854273E+04  0.65000000000E+04  0.15050000000E+03 0. -1.
     100001    1    1    2    0    0  0.14147711035E+04  0.27263780233E+04 -0.57264854273E+04  0.65000000000E+04  0.15050000000E+03 0.  1.
</event>
<event>
 4    1  0.5640637E-004  0.6500000E+04  0.7818608E-02  0.7223770E-01
         52   -1    0    0    0    0  0.00000000000E+00  0.00000000000E+00  0.64930732323E+04  0.65000000000E+04  0.30000000000E+03 0.  1.
        -52   -1    0    0    0    0 -0.00000000000E+00 -0.00000000000E+00 -0.64930732323E+04  0.65000000000E+04  0.30000000000E+03 0.  1.
     100001    1    1    2    0    0  0.13034235892E+03 -0.18746822102E+02  0.64969230545E+04  0.65000000000E+04  0.15050000000E+03 0.  1.
     100001    1    1    2    0    0 -0.13034235892E+03  0.18746822102E+02 -0.64969230545E+04  0.65000000000E+04  0.15050000000E+03 0.  1.
</event>
<event>
 4    1  0.5640637E-004  0.6500000E+04  0.7818608E-02  0.7223770E-01
         52   -1    0    0    0    0  0.00000000000E+00  0.00000000000E+00  0.64930732323E+04  0.65000000000E+04  0.30000000000E+03 0.  1.
        -52   -1    0    0    0    0 -0.00000000000E+00 -0.00000000000E+00 -0.64930732323E+04  0.65000000000E+04  0.30000000000E+03 0. -1.
     100001    1    1    2    0    0  0.25527926011E+04  0.12294235830E+04  0.58480011405E+04  0.65000000000E+04  0.15050000000E+03 0.  1.
     100001    1    1    2    0    0 -0.25527926011E+04 -0.12294235830E+04 -0.58480011405E+04  0.65000000000E+04  0.15050000000E+03 0. -1.
</event>
<event>
 4    1  0.5640637E-004  0.6500000E+04  0.7818608E-02  0.7223770E-01
         52   -1    0    0    0    0  0.00000000000E+00  0.00000000000E+00  0.64930732323E+04  0.65000000000E+04  0.30000000000E+03 0.  1.
        -52   -1    0    0    0    0 -0.00000000000E+00 -0.00000000000E+00 -0.64930732323E+04  0.65000000000E+04  0.30000000000E+03 0. -1.
     100001    1    1    2    0    0 -0.27902290907E+04  0.31141216474E+04  0.49743560123E+04  0.65000000000E+04  0.15050000000E+03 0.  1.
     100001    1    1    2    0    0  0.27902290907E+04 -0.31141216474E+04 -0.49743560123E+04  0.65000000000E+04  0.15050000000E+03 0. -1.
</event>
<event>
 4    1  0.5640637E-004  0.6500000E+04  0.7818608E-02  0.7223770E-01
         52   -1    0    0    0    0  0.00000000000E+00  0.00000000000E+00  0.64930732323E+04  0.65000000000E+04  0.30000000000E+03 0. -1.
        -52   -1    0    0    0    0 -0.00000000000E+00 -0.00000000000E+00 -0.64930732323E+04  0.65000000000E+04  0.30000000000E+03 0.  1.
     100001    1    1    2    0    0  0.41436159548E+04  0.92050844995E+03 -0.49204126618E+04  0.65000000000E+04  0.15050000000E+03 0.  1.
     100001    1    1    2    0    0 -0.41436159548E+04 -0.92050844995E+03  0.49204126618E+04  0.65000000000E+04  0.15050000000E+03 0. -1.
</event>
<event>
 4    1  0.5640637E-004  0.6500000E+04  0.7818608E-02  0.7223770E-01
         52   -1    0    0    0    0  0.00000000000E+00  0.00000000000E+00  0.64930732323E+04  0.65000000000E+04  0.30000000000E+03 0. -1.
        -52   -1    0    0    0    0 -0.00000000000E+00 -0.00000000000E+00 -0.64930732323E+04  0.65000000000E+04  0.30000000000E+03 0.  1.
     100001    1    1    2    0    0 -0.31401607413E+04  0.91362924764E+03 -0.56153380901E+04  0.65000000000E+04  0.15050000000E+03 0.  1.
     100001    1    1    2    0    0  0.31401607413E+04 -0.91362924764E+03  0.56153380901E+04  0.65000000000E+04  0.15050000000E+03 0. -1.
</event>
<event>
 4    1  0.5640637E-004  0.6500000E+04  0.7818608E-02  0.7223770E-01
         52   -1    0    0    0    0  0.00000000000E+00  0.00000000000E+00  0.64930732323E+04  0.65000000000E+04  0.30000000000E+03 0.  1.
        -52   -1    0    0    0    0 -0.00000000000E+00 -0.00000000000E+00 -0.64930732323E+04  0.65000000000E+04  0.30000000000E+03 0. -1.
     100001    1    1    2    0    0  0.78096085869E+03 -0.66788926626E+03  0.64164923296E+04  0.65000000000E+04  0.15050000000E+03 0.  1.
     100001    1    1    2    0    0 -0.78096085869E+03  0.66788926626E+03 -0.64164923296E+04  0.65000000000E+04  0.15050000000E+03 0. -1.
</event>
<event>
 4    1  0.5640637E-004  0.6500000E+04  0.7818608E-02  0.7223770E-01
         52   -1    0    0    0    0  0.00000000000E+00  0.00000000000E+00  0.64930732323E+04  0.65000000000E+04  0.30000000000E+03 0.  1.
        -52   -1    0    0    0    0 -0.00000000000E+00 -0.00000000000E+00 -0.64930732323E+04  0.65000000000E+04  0.30000000000E+03 0. -1.
     100001    1    1    2    0    0 -0.39308088571E+04  0.36442114269E+03 -0.51617137377E+04  0.65000000000E+04  0.15050000000E+03 0. -1.
     100001    1    1    2    0    0  0.39308088571E+04 -0.36442114269E+03  0.51617137377E+04  0.65000000000E+04  0.15050000000E+03 0.  1.
</event>
<event>
 4    1  0.5640637E-004  0.6500000E+04  0.7818608E-02  0.7223770E-01
         52   -1    0    0    0    0  0.00000000000E+00  0.00000000000E+00  0.64930732323E+04  0.65000000000E+04  0.30000000000E+03 0.  1.
        -52   -1    0    0    0    0 -0.00000000000E+00 -0.00000000000E+00 -0.64930732323E+04  0.65000000000E+04  0.30000000000E+03 0. -1.
     100001    1    1    2    0    0 -0.93403488008E+03  0.21116647104E+04  0.60741913654E+04  0.65000000000E+04  0.15050000000E+03 0.  1.
     100001    1    1    2    0    0  0.93403488008E+03 -0.21116647104E+04 -0.60741913654E+04  0.65000000000E+04  0.15050000000E+03 0. -1.
</event>
<event>
 4    1  0.5640637E-004  0.6500000E+04  0.7818608E-02  0.7223770E-01
         52   -1    0    0    0    0  0.00000000000E+00  0.00000000000E+00  0.64930732323E+04  0.65000000000E+04  0.30000000000E+03 0. -1.
        -52   -1    0    0    0    0 -0.00000000000E+00 -0.00000000000E+00 -0.64930732323E+04  0.65000000000E+04  0.30000000000E+03 0.  1.
     100001    1    1    2    0    0  0.28322775926E+04  0.17551384700E+03  0.58459172315E+04  0.65000000000E+04  0.15050000000E+03 0. -1.
     100001    1    1    2    0    0 -0.28322775926E+04 -0.17551384700E+03 -0.58459172315E+04  0.65000000000E+04  0.15050000000E+03 0.  1.
</event>
<event>
 4    1  0.5640637E-004  0.6500000E+04  0.7818608E-02  0.7223770E-01
         52   -1    0    0    0    0  0.00000000000E+00  0.00000000000E+00  0.64930732323E+04  0.65000000000E+04  0.30000000000E+03 0.  1.
        -52   -1    0    0    0    0 -0.00000000000E+00 -0.00000000000E+00 -0.64930732323E+04  0.65000000000E+04  0.30000000000E+03 0. -1.
     100001    1    1    2    0    0  0.27092639056E+04 -0.20149320552E+04  0.55522326728E+04  0.65000000000E+04  0.15050000000E+03 0.  1.
     100001    1    1    2    0    0 -0.27092639056E+04  0.20149320552E+04 -0.55522326728E+04  0.65000000000E+04  0.15050000000E+03 0. -1.
</event>
<event>
 4    1  0.5640637E-004  0.6500000E+04  0.7818608E-02  0.7223770E-01
         52   -1    0    0    0    0  0.00000000000E+00  0.00000000000E+00  0.64930732323E+04  0.65000000000E+04  0.30000000000E+03 0. -1.
        -52   -1    0    0    0    0 -0.00000000000E+00 -0.00000000000E+00 -0.64930732323E+04  0.65000000000E+04  0.30000000000E+03 0.  1.
     100001    1    1    2    0    0  0.17431932658E+04 -0.15375974319E+04 -0.60683128731E+04  0.65000000000E+04  0.15050000000E+03 0.  1.
     100001    1    1    2    0    0 -0.17431932658E+04  0.15375974319E+04  0.60683128731E+04  0.65000000000E+04  0.15050000000E+03 0. -1.
</event>
<event>
 4    1  0.5640637E-004  0.6500000E+04  0.7818608E-02  0.7223770E-01
         52   -1    0    0    0    0  0.00000000000E+00  0.00000000000E+00  0.64930732323E+04  0.65000000000E+04  0.30000000000E+03 0.  1.
        -52   -1    0    0    0    0 -0.00000000000E+00 -0.00000000000E+00 -0.64930732323E+04  0.65000000000E+04  0.30000000000E+03 0. -1.
     100001    1    1    2    0    0 -0.68206092650E+03  0.45632424797E+02  0.64622024360E+04  0.65000000000E+04  0.15050000000E+03 0.  1.
     100001    1    1    2    0    0  0.68206092650E+03 -0.45632424797E+02 -0.64622024360E+04  0.65000000000E+04  0.15050000000E+03 0. -1.
</event>
<event>
 4    1  0.5640637E-004  0.6500000E+04  0.7818608E-02  0.7223770E-01
         52   -1    0    0    0    0  0.00000000000E+00  0.00000000000E+00  0.64930732323E+04  0.65000000000E+04  0.30000000000E+03 0.  1.
        -52   -1    0    0    0    0 -0.00000000000E+00 -0.00000000000E+00 -0.64930732323E+04  0.65000000000E+04  0.30000000000E+03 0. -1.
     100001    1    1    2    0    0  0.49409610123E+03 -0.13631510594E+04  0.63344327277E+04  0.65000000000E+04  0.15050000000E+03 0.  1.
     100001    1    1    2    0    0 -0.49409610123E+03  0.13631510594E+04 -0.63344327277E+04  0.65000000000E+04  0.15050000000E+03 0. -1.
</event>
<event>
 4    1  0.5640637E-004  0.6500000E+04  0.7818608E-02  0.7223770E-01
         52   -1    0    0    0    0  0.00000000000E+00  0.00000000000E+00  0.64930732323E+04  0.65000000000E+04  0.30000000000E+03 0. -1.
        -52   -1    0    0    0    0 -0.00000000000E+00 -0.00000000000E+00 -0.64930732323E+04  0.65000000000E+04  0.30000000000E+03 0. -1.
     100001    1    1    2    0    0 -0.22454737190E+04 -0.34055176195E+04  0.50584233977E+04  0.65000000000E+04  0.15050000000E+03 0. -1.
     100001    1    1    2    0    0  0.22454737190E+04  0.34055176195E+04 -0.50584233977E+04  0.65000000000E+04  0.15050000000E+03 0. -1.
</event>
<event>
 4    1  0.5640637E-004  0.6500000E+04  0.7818608E-02  0.7223770E-01
         52   -1    0    0    0    0  0.00000000000E+00  0.00000000000E+00  0.64930732323E+04  0.65000000000E+04  0.30000000000E+03 0.  1.
        -52   -1    0    0    0    0 -0.00000000000E+00 -0.00000000000E+00 -0.64930732323E+04  0.65000000000E+04  0.30000000000E+03 0. -1.
     100001    1    1    2    0    0  0.36951469115E+03 -0.56437779304E+04  0.31997780103E+04  0.65000000000E+04  0.15050000000E+03 0.  1.
     100001    1    1    2    0    0 -0.36951469115E+03  0.56437779304E+04 -0.31997780103E+04  0.65000000000E+04  0.15050000000E+03 0. -1.
</event>
<event>
 4    1  0.5640637E-004  0.6500000E+04  0.7818608E-02  0.7223770E-01
         52   -1    0    0    0    0  0.00000000000E+00  0.00000000000E+00  0.64930732323E+04  0.65000000000E+04  0.30000000000E+03 0.  1.
        -52   -1    0    0    0    0 -0.00000000000E+00 -0.00000000000E+00 -0.64930732323E+04  0.65000000000E+04  0.30000000000E+03 0. -1.
     100001    1    1    2    0    0  0.33275144683E+04  0.25629006102E+04 -0.49584813880E+04  0.65000000000E+04  0.15050000000E+03 0. -1.
     100001    1    1    2    0    0 -0.33275144683E+04 -0.25629006102E+04  0.49584813880E+04  0.65000000000E+04  0.15050000000E+03 0.  1.
</event>
<event>
 4    1  0.5640637E-004  0.6500000E+04  0.7818608E-02  0.7223770E-01
         52   -1    0    0    0    0  0.00000000000E+00  0.00000000000E+00  0.64930732323E+04  0.65000000000E+04  0.30000000000E+03 0. -1.
        -52   -1    0    0    0    0 -0.00000000000E+00 -0.00000000000E+00 -0.64930732323E+04  0.65000000000E+04  0.30000000000E+03 0.  1.
     100001    1    1    2    0    0  0.40835574087E+03  0.65019649473E+02  0.64850881092E+04  0.65000000000E+04  0.15050000000E+03 0. -1.
     100001    1    1    2    0    0 -0.40835574087E+03 -0.65019649473E+02 -0.64850881092E+04  0.65000000000E+04  0.15050000000E+03 0.  1.
</event>
<event>
 4    1  0.5640637E-004  0.6500000E+04  0.7818608E-02  0.7223770E-01
         52   -1    0    0    0    0  0.00000000000E+00  0.00000000000E+00  0.64930732323E+04  0.65000000000E+04  0.30000000000E+03 0.  1.
        -52   -1    0    0    0    0 -0.00000000000E+00 -0.00000000000E+00 -0.64930732323E+04  0.65000000000E+04  0.30000000000E+03 0. -1.
     100001    1    1    2    0    0  0.27695781134E+03 -0.24584787727E+04  0.60088706297E+04  0.65000000000E+04  0.15050000000E+03 0.  1.
     100001    1    1    2    0    0 -0.27695781134E+03  0.24584787727E+04 -0.60088706297E+04  0.65000000000E+04  0.15050000000E+03 0. -1.
</event>
<event>
 4    1  0.5640637E-004  0.6500000E+04  0.7818608E-02  0.7223770E-01
         52   -1    0    0    0    0  0.00000000000E+00  0.00000000000E+00  0.64930732323E+04  0.65000000000E+04  0.30000000000E+03 0.  1.
        -52   -1    0    0    0    0 -0.00000000000E+00 -0.00000000000E+00 -0.64930732323E+04  0.65000000000E+04  0.30000000000E+03 0. -1.
     100001    1    1    2    0    0  0.29081749185E+03 -0.15641530779E+04 -0.63004920510E+04  0.65000000000E+04  0.15050000000E+03 0. -1.
     100001    1    1    2    0    0 -0.29081749185E+03  0.15641530779E+04  0.63004920510E+04  0.65000000000E+04  0.15050000000E+03 0.  1.
</event>
<event>
 4    1  0.5640637E-004  0.6500000E+04  0.7818608E-02  0.7223770E-01
         52   -1    0    0    0    0  0.00000000000E+00  0.00000000000E+00  0.64930732323E+04  0.65000000000E+04  0.30000000000E+03 0. -1.
        -52   -1    0    0    0    0 -0.00000000000E+00 -0.00000000000E+00 -0.64930732323E+04  0.65000000000E+04  0.30000000000E+03 0.  1.
     100001    1    1    2    0    0  0.16385189207E+04 -0.55935936550E+04 -0.28730324606E+04  0.65000000000E+04  0.15050000000E+03 0.  1.
     100001    1    1    2    0    0 -0.16385189207E+04  0.55935936550E+04  0.28730324606E+04  0.65000000000E+04  0.15050000000E+03 0. -1.
</event>
<event>
 4    1  0.5640637E-004  0.6500000E+04  0.7818608E-02  0.7223770E-01
         52   -1    0    0    0    0  0.00000000000E+00  0.00000000000E+00  0.64930732323E+04  0.65000000000E+04  0.30000000000E+03 0.  1.
        -52   -1    0    0    0    0 -0.00000000000E+00 -0.00000000000E+00 -0.64930732323E+04  0.65000000000E+04  0.30000000000E+03 0. -1.
     100001    1    1    2    0    0  0.33805095471E+03 -0.41447812155E+04 -0.49933816175E+04  0.65000000000E+04  0.15050000000E+03 0. -1.
     100001    1    1    2    0    0 -0.33805095471E+03  0.41447812155E+04  0.49933816175E+04  0.65000000000E+04  0.15050000000E+03 0.  1.
</event>
<event>
 4    1  0.5640637E-004  0.6500000E+04  0.7818608E-02  0.7223770E-01
         52   -1    0    0    0    0  0.00000000000E+00  0.00000000000E+00  0.64930732323E+04  0.65000000000E+04  0.30000000000E+03 0.  1.
        -52   -1    0    0    0    0 -0.00000000000E+00 -0.00000000000E+00 -0.64930732323E+04  0.65000000000E+04  0.30000000000E+03 0. -1.
     100001    1    1    2    0    0  0.23908622127E+03  0.86466760293E+02 -0.64932819920E+04  0.65000000000E+04  0.15050000000E+03 0. -1.
     100001    1    1    2    0    0 -0.23908622127E+03 -0.86466760293E+02  0.64932819920E+04  0.65000000000E+04  0.15050000000E+03 0.  1.
</event>
<event>
 4    1  0.5640637E-004  0.6500000E+04  0.7818608E-02  0.7223770E-01
         52   -1    0    0    0    0  0.00000000000E+00  0.00000000000E+00  0.64930732323E+04  0.65000000000E+04  0.30000000000E+03 0. -1.
        -52   -1    0    0    0    0 -0.00000000000E+00 -0.00000000000E+00 -0.64930732323E+04  0.65000000000E+04  0.30000000000E+03 0.  1.
     100001    1    1    2    0    0 -0.11173648376E+04  0.13659503701E+04 -0.62540407063E+04  0.65000000000E+04  0.15050000000E+03 0.  1.
     100001    1    1    2    0    0  0.11173648376E+04 -0.13659503701E+04  0.62540407063E+04  0.65000000000E+04  0.15050000000E+03 0. -1.
</event>
<event>
 4    1  0.5640637E-004  0.6500000E+04  0.7818608E-02  0.7223770E-01
         52   -1    0    0    0    0  0.00000000000E+00  0.00000000000E+00  0.64930732323E+04  0.65000000000E+04  0.30000000000E+03 0. -1.
        -52   -1    0    0    0    0 -0.00000000000E+00 -0.00000000000E+00 -0.64930732323E+04  0.65000000000E+04  0.30000000000E+03 0.  1.
     100001    1    1    2    0    0 -0.52956070499E+03  0.59124417957E+03  0.64496004163E+04  0.65000000000E+04  0.15050000000E+03 0. -1.
     100001    1    1    2    0    0  0.52956070499E+03 -0.59124417957E+03 -0.64496004163E+04  0.65000000000E+04  0.15050000000E+03 0.  1.
</event>
<event>
 4    1  0.5640637E-004  0.6500000E+04  0.7818608E-02  0.7223770E-01
         52   -1    0    0    0    0  0.00000000000E+00  0.00000000000E+00  0.64930732323E+04  0.65000000000E+04  0.30000000000E+03 0. -1.
        -52   -1    0    0    0    0 -0.00000000000E+00 -0.00000000000E+00 -0.64930732323E+04  0.65000000000E+04  0.30000000000E+03 0. -1.
     100001    1    1    2    0    0 -0.15996467309E+03  0.41011689286E+03  0.64833297917E+04  0.65000000000E+04  0.15050000000E+03 0. -1.
     100001    1    1    2    0    0  0.15996467309E+03 -0.41011689286E+03 -0.64833297917E+04  0.65000000000E+04  0.15050000000E+03 0. -1.
</event>
<event>
 4    1  0.5640637E-004  0.6500000E+04  0.7818608E-02  0.7223770E-01
         52   -1    0    0    0    0  0.00000000000E+00  0.00000000000E+00  0.64930732323E+04  0.65000000000E+04  0.30000000000E+03 0.  1.
        -52   -1    0    0    0    0 -0.00000000000E+00 -0.00000000000E+00 -0.64930732323E+04  0.65000000000E+04  0.30000000000E+03 0. -1.
     100001    1    1    2    0    0 -0.51313685771E+03 -0.10384975942E+04 -0.63941819697E+04  0.65000000000E+04  0.15050000000E+03 0. -1.
     100001    1    1    2    0    0  0.51313685771E+03  0.10384975942E+04  0.63941819697E+04  0.65000000000E+04  0.15050000000E+03 0.  1.
</event>
<event>
 4    1  0.5640637E-004  0.6500000E+04  0.7818608E-02  0.7223770E-01
         52   -1    0    0    0    0  0.00000000000E+00  0.00000000000E+00  0.64930732323E+04  0.65000000000E+04  0.30000000000E+03 0.  1.
        -52   -1    0    0    0    0 -0.00000000000E+00 -0.00000000000E+00 -0.64930732323E+04  0.65000000000E+04  0.30000000000E+03 0. -1.
     100001    1    1    2    0    0  0.56988530041E+04 -0.14846666541E+04  0.27470327834E+04  0.65000000000E+04  0.15050000000E+03 0.  1.
     100001    1    1    2    0    0 -0.56988530041E+04  0.14846666541E+04 -0.27470327834E+04  0.65000000000E+04  0.15050000000E+03 0. -1.
</event>
<event>
 4    1  0.5640637E-004  0.6500000E+04  0.7818608E-02  0.7223770E-01
         52   -1    0    0    0    0  0.00000000000E+00  0.00000000000E+00  0.64930732323E+04  0.65000000000E+04  0.30000000000E+03 0.  1.
        -52   -1    0    0    0    0 -0.00000000000E+00 -0.00000000000E+00 -0.64930732323E+04  0.65000000000E+04  0.30000000000E+03 0. -1.
     100001    1    1    2    0    0 -0.12890347831E+04 -0.41207736990E+03  0.63557793636E+04  0.65000000000E+04  0.15050000000E+03 0.  1.
     100001    1    1    2    0    0  0.12890347831E+04  0.41207736990E+03 -0.63557793636E+04  0.65000000000E+04  0.15050000000E+03 0. -1.
</event>
<event>
 4    1  0.5640637E-004  0.6500000E+04  0.7818608E-02  0.7223770E-01
         52   -1    0    0    0    0  0.00000000000E+00  0.00000000000E+00  0.64930732323E+04  0.65000000000E+04  0.30000000000E+03 0. -1.
        -52   -1    0    0    0    0 -0.00000000000E+00 -0.00000000000E+00 -0.64930732323E+04  0.65000000000E+04  0.30000000000E+03 0. -1.
     100001    1    1    2    0    0  0.81940829121E+03 -0.81742772994E+02  0.64458698343E+04  0.65000000000E+04  0.15050000000E+03 0. -1.
     100001    1    1    2    0    0 -0.81940829121E+03  0.81742772994E+02 -0.64458698343E+04  0.65000000000E+04  0.15050000000E+03 0. -1.
</event>
<event>
 4    1  0.5640637E-004  0.6500000E+04  0.7818608E-02  0.7223770E-01
         52   -1    0    0    0    0  0.00000000000E+00  0.00000000000E+00  0.64930732323E+04  0.65000000000E+04  0.30000000000E+03 0. -1.
        -52   -1    0    0    0    0 -0.00000000000E+00 -0.00000000000E+00 -0.64930732323E+04  0.65000000000E+04  0.30000000000E+03 0.  1.
     100001    1    1    2    0    0 -0.59838955762E+04 -0.90137587479E+01 -0.25338236394E+04  0.65000000000E+04  0.15050000000E+03 0.  1.
     100001    1    1    2    0    0  0.59838955762E+04  0.90137587479E+01  0.25338236394E+04  0.65000000000E+04  0.15050000000E+03 0. -1.
</event>
<event>
 4    1  0.5640637E-004  0.6500000E+04  0.7818608E-02  0.7223770E-01
         52   -1    0    0    0    0  0.00000000000E+00  0.00000000000E+00  0.64930732323E+04  0.65000000000E+04  0.30000000000E+03 0.  1.
        -52   -1    0    0    0    0 -0.00000000000E+00 -0.00000000000E+00 -0.64930732323E+04  0.65000000000E+04  0.30000000000E+03 0. -1.
     100001    1    1    2    0    0 -0.22715099402E+03  0.69040401941E+01  0.64942824477E+04  0.65000000000E+04  0.15050000000E+03 0.  1.
     100001    1    1    2    0    0  0.22715099402E+03 -0.69040401941E+01 -0.64942824477E+04  0.65000000000E+04  0.15050000000E+03 0. -1.
</event>
<event>
 4    1  0.5640637E-004  0.6500000E+04  0.7818608E-02  0.7223770E-01
         52   -1    0    0    0    0  0.00000000000E+00  0.00000000000E+00  0.64930732323E+04  0.65000000000E+04  0.30000000000E+03 0.  1.
        -52   -1    0    0    0    0 -0.00000000000E+00 -0.00000000000E+00 -0.64930732323E+04  0.65000000000E+04  0.30000000000E+03 0. -1.
     100001    1    1    2    0    0 -0.22908156423E+04 -0.18073470800E+04 -0.58062905521E+04  0.65000000000E+04  0.15050000000E+03 0. -1.
     100001    1    1    2    0    0  0.22908156423E+04  0.18073470800E+04  0.58062905521E+04  0.65000000000E+04  0.15050000000E+03 0.  1.
</event>
<event>
 4    1  0.5640637E-004  0.6500000E+04  0.7818608E-02  0.7223770E-01
         52   -1    0    0    0    0  0.00000000000E+00  0.00000000000E+00  0.64930732323E+04  0.65000000000E+04  0.30000000000E+03 0.  1.
        -52   -1    0    0    0    0 -0.00000000000E+00 -0.00000000000E+00 -0.64930732323E+04  0.65000000000E+04  0.30000000000E+03 0. -1.
     100001    1    1    2    0    0  0.42737514156E+03 -0.14145759279E+04  0.63280072047E+04  0.65000000000E+04  0.15050000000E+03 0.  1.
     100001    1    1    2    0    0 -0.42737514156E+03  0.14145759279E+04 -0.63280072047E+04  0.65000000000E+04  0.15050000000E+03 0. -1.
</event>
<event>
 4    1  0.5640637E-004  0.6500000E+04  0.7818608E-02  0.7223770E-01
         52   -1    0    0    0    0  0.00000000000E+00  0.00000000000E+00  0.64930732323E+04  0.65000000000E+04  0.30000000000E+03 0. -1.
        -52   -1    0    0    0    0 -0.00000000000E+00 -0.00000000000E+00 -0.64930732323E+04  0.65000000000E+04  0.30000000000E+03 0.  1.
     100001    1    1    2    0    0  0.22697821836E+03 -0.37597309613E+04 -0.52953048767E+04  0.65000000000E+04  0.15050000000E+03 0.  1.
     100001    1    1    2    0    0 -0.22697821836E+03  0.37597309613E+04  0.52953048767E+04  0.65000000000E+04  0.15050000000E+03 0. -1.
</event>
<event>
 4    1  0.5640637E-004  0.6500000E+04  0.7818608E-02  0.7223770E-01
         52   -1    0    0    0    0  0.00000000000E+00  0.00000000000E+00  0.64930732323E+04  0.65000000000E+04  0.30000000000E+03 0. -1.
        -52   -1    0    0    0    0 -0.00000000000E+00 -0.00000000000E+00 -0.64930732323E+04  0.65000000000E+04  0.30000000000E+03 0.  1.
     100001    1    1    2    0    0  0.11866466484E+04 -0.18763413900E+04  0.61072549046E+04  0.65000000000E+04  0.15050000000E+03 0. -1.
     100001    1    1    2    0    0 -0.11866466484E+04  0.18763413900E+04 -0.61072549046E+04  0.65000000000E+04  0.15050000000E+03 0.  1.
</event>
<event>
 4    1  0.5640637E-004  0.6500000E+04  0.7818608E-02  0.7223770E-01
         52   -1    0    0    0    0  0.00000000000E+00  0.00000000000E+00  0.64930732323E+04  0.65000000000E+04  0.30000000000E+03 0. -1.
        -52   -1    0    0    0    0 -0.00000000000E+00 -0.00000000000E+00 -0.64930732323E+04  0.65000000000E+04  0.30000000000E+03 0.  1.
     100001    1    1    2    0    0 -0.61458423868E+04  0.11955013659E+04 -0.17397550374E+04  0.65000000000E+04  0.15050000000E+03 0.  1.
     100001    1    1    2    0    0  0.61458423868E+04 -0.11955013659E+04  0.17397550374E+04  0.65000000000E+04  0.15050000000E+03 0. -1.
</event>
<event>
 4    1  0.5640637E-004  0.6500000E+04  0.7818608E-02  0.7223770E-01
         52   -1    0    0    0    0  0.00000000000E+00  0.00000000000E+00  0.64930732323E+04  0.65000000000E+04  0.30000000000E+03 0.  1.
        -52   -1    0    0    0    0 -0.00000000000E+00 -0.00000000000E+00 -0.64930732323E+04  0.65000000000E+04  0.30000000000E+03 0. -1.
     100001    1    1    2    0    0 -0.33728843225E+03  0.32271340205E+02 -0.64894179110E+04  0.65000000000E+04  0.15050000000E+03 0. -1.
     100001    1    1    2    0    0  0.33728843225E+03 -0.32271340205E+02  0.64894179110E+04  0.65000000000E+04  0.15050000000E+03 0.  1.
</event>
<event>
 4    1  0.5640637E-004  0.6500000E+04  0.7818608E-02  0.7223770E-01
         52   -1    0    0    0    0  0.00000000000E+00  0.00000000000E+00  0.64930732323E+04  0.65000000000E+04  0.30000000000E+03 0. -1.
        -52   -1    0    0    0    0 -0.00000000000E+00 -0.00000000000E+00 -0.64930732323E+04  0.65000000000E+04  0.30000000000E+03 0.  1.
     100001    1    1    2    0    0 -0.17988376065E+03 -0.36514648250E+03 -0.64854960974E+04  0.65000000000E+04  0.15050000000E+03 0.  1.
     100001    1    1    2    0    0  0.17988376065E+03  0.36514648250E+03  0.64854960974E+04  0.65000000000E+04  0.15050000000E+03 0. -1.
</event>
<event>
 4    1  0.5640637E-004  0.6500000E+04  0.7818608E-02  0.7223770E-01
         52   -1    0    0    0    0  0.00000000000E+00  0.00000000000E+00  0.64930732323E+04  0.65000000000E+04  0.30000000000E+03 0.  1.
        -52   -1    0    0    0    0 -0.00000000000E+00 -0.00000000000E+00 -0.64930732323E+04  0.65000000000E+04  0.30000000000E+03 0. -1.
     100001    1    1    2    0    0  0.20040973155E+04 -0.21193287198E+04 -0.58068398874E+04  0.65000000000E+04  0.15050000000E+03 0. -1.
     100001    1    1    2    0    0 -0.20040973155E+04  0.21193287198E+04  0.58068398874E+04  0.65000000000E+04  0.15050000000E+03 0.  1.
</event>
<event>
 4    1  0.5640637E-004  0.6500000E+04  0.7818608E-02  0.7223770E-01
         52   -1    0    0    0    0  0.00000000000E+00  0.00000000000E+00  0.64930732323E+04  0.65000000000E+04  0.30000000000E+03 0. -1.
        -52   -1    0    0    0    0 -0.00000000000E+00 -0.00000000000E+00 -0.64930732323E+04  0.65000000000E+04  0.30000000000E+03 0. -1.
     100001    1    1    2    0    0  0.28887870930E+04  0.17708766564E+03  0.58181525281E+04  0.65000000000E+04  0.15050000000E+03 0. -1.
     100001    1    1    2    0    0 -0.28887870930E+04 -0.17708766564E+03 -0.58181525281E+04  0.65000000000E+04  0.15050000000E+03 0. -1.
</event>
<event>
 4    1  0.5640637E-004  0.6500000E+04  0.7818608E-02  0.7223770E-01
         52   -1    0    0    0    0  0.00000000000E+00  0.00000000000E+00  0.64930732323E+04  0.65000000000E+04  0.30000000000E+03 0.  1.
        -52   -1    0    0    0    0 -0.00000000000E+00 -0.00000000000E+00 -0.64930732323E+04  0.65000000000E+04  0.30000000000E+03 0. -1.
     100001    1    1    2    0    0  0.13452079562E+04 -0.32639356914E+03  0.63491127366E+04  0.65000000000E+04  0.15050000000E+03 0.  1.
     100001    1    1    2    0    0 -0.13452079562E+04  0.32639356914E+03 -0.63491127366E+04  0.65000000000E+04  0.15050000000E+03 0. -1.
</event>
<event>
 4    1  0.5640637E-004  0.6500000E+04  0.7818608E-02  0.7223770E-01
         52   -1    0    0    0    0  0.00000000000E+00  0.00000000000E+00  0.64930732323E+04  0.65000000000E+04  0.30000000000E+03 0. -1.
        -52   -1    0    0    0    0 -0.00000000000E+00 -0.00000000000E+00 -0.64930732323E+04  0.65000000000E+04  0.30000000000E+03 0.  1.
     100001    1    1    2    0    0 -0.34257469393E+04 -0.22154459490E+04  0.50580042413E+04  0.65000000000E+04  0.15050000000E+03 0. -1.
     100001    1    1    2    0    0  0.34257469393E+04  0.22154459490E+04 -0.50580042413E+04  0.65000000000E+04  0.15050000000E+03 0.  1.
</event>
<event>
 4    1  0.5640637E-004  0.6500000E+04  0.7818608E-02  0.7223770E-01
         52   -1    0    0    0    0  0.00000000000E+00  0.00000000000E+00  0.64930732323E+04  0.65000000000E+04  0.30000000000E+03 0. -1.
        -52   -1    0    0    0    0 -0.00000000000E+00 -0.00000000000E+00 -0.64930732323E+04  0.65000000000E+04  0.30000000000E+03 0.  1.
     100001    1    1    2    0    0  0.28979262809E+04 -0.19807764771E+04 -0.54686284906E+04  0.65000000000E+04  0.15050000000E+03 0.  1.
     100001    1    1    2    0    0 -0.28979262809E+04  0.19807764771E+04  0.54686284906E+04  0.65000000000E+04  0.15050000000E+03 0. -1.
</event>
<event>
 4    1  0.5640637E-004  0.6500000E+04  0.7818608E-02  0.7223770E-01
         52   -1    0    0    0    0  0.00000000000E+00  0.00000000000E+00  0.64930732323E+04  0.65000000000E+04  0.30000000000E+03 0.  1.
        -52   -1    0    0    0    0 -0.00000000000E+00 -0.00000000000E+00 -0.64930732323E+04  0.65000000000E+04  0.30000000000E+03 0. -1.
     100001    1    1    2    0    0  0.13257644059E+04 -0.17574947676E+04  0.61139930186E+04  0.65000000000E+04  0.15050000000E+03 0.  1.
     100001    1    1    2    0    0 -0.13257644059E+04  0.17574947676E+04 -0.61139930186E+04  0.65000000000E+04  0.15050000000E+03 0. -1.
</event>
<event>
 4    1  0.5640637E-004  0.6500000E+04  0.7818608E-02  0.7223770E-01
         52   -1    0    0    0    0  0.00000000000E+00  0.00000000000E+00  0.64930732323E+04  0.65000000000E+04  0.30000000000E+03 0. -1.
        -52   -1    0    0    0    0 -0.00000000000E+00 -0.00000000000E+00 -0.64930732323E+04  0.65000000000E+04  0.30000000000E+03 0.  1.
     100001    1    1    2    0    0 -0.19547327411E+04  0.58185497731E+04 -0.21332717123E+04  0.65000000000E+04  0.15050000000E+03 0.  1.
     100001    1    1    2    0    0  0.19547327411E+04 -0.58185497731E+04  0.21332717123E+04  0.65000000000E+04  0.15050000000E+03 0. -1.
</event>
<event>
 4    1  0.5640637E-004  0.6500000E+04  0.7818608E-02  0.7223770E-01
         52   -1    0    0    0    0  0.00000000000E+00  0.00000000000E+00  0.64930732323E+04  0.65000000000E+04  0.30000000000E+03 0. -1.
        -52   -1    0    0    0    0 -0.00000000000E+00 -0.00000000000E+00 -0.64930732323E+04  0.65000000000E+04  0.30000000000E+03 0.  1.
     100001    1    1    2    0    0 -0.66590814371E+03 -0.87857369511E+03 -0.64040631131E+04  0.65000000000E+04  0.15050000000E+03 0.  1.
     100001    1    1    2    0    0  0.66590814371E+03  0.87857369511E+03  0.64040631131E+04  0.65000000000E+04  0.15050000000E+03 0. -1.
</event>
<event>
 4    1  0.5640637E-004  0.6500000E+04  0.7818608E-02  0.7223770E-01
         52   -1    0    0    0    0  0.00000000000E+00  0.00000000000E+00  0.64930732323E+04  0.65000000000E+04  0.30000000000E+03 0. -1.
        -52   -1    0    0    0    0 -0.00000000000E+00 -0.00000000000E+00 -0.64930732323E+04  0.65000000000E+04  0.30000000000E+03 0. -1.
     100001    1    1    2    0    0  0.96379329472E+01  0.36719465724E+03 -0.64878675190E+04  0.65000000000E+04  0.15050000000E+03 0. -1.
     100001    1    1    2    0    0 -0.96379329472E+01 -0.36719465724E+03  0.64878675190E+04  0.65000000000E+04  0.15050000000E+03 0. -1.
</event>
<event>
 4    1  0.5640637E-004  0.6500000E+04  0.7818608E-02  0.7223770E-01
         52   -1    0    0    0    0  0.00000000000E+00  0.00000000000E+00  0.64930732323E+04  0.65000000000E+04  0.30000000000E+03 0.  1.
        -52   -1    0    0    0    0 -0.00000000000E+00 -0.00000000000E+00 -0.64930732323E+04  0.65000000000E+04  0.30000000000E+03 0. -1.
     100001    1    1    2    0    0 -0.52260246797E+04 -0.10558826908E+03 -0.38606821825E+04  0.65000000000E+04  0.15050000000E+03 0. -1.
     100001    1    1    2    0    0  0.52260246797E+04  0.10558826908E+03  0.38606821825E+04  0.65000000000E+04  0.15050000000E+03 0.  1.
</event>
<event>
 4    1  0.5640637E-004  0.6500000E+04  0.7818608E-02  0.7223770E-01
         52   -1    0    0    0    0  0.00000000000E+00  0.00000000000E+00  0.64930732323E+04  0.65000000000E+04  0.30000000000E+03 0. -1.
        -52   -1    0    0    0    0 -0.00000000000E+00 -0.00000000000E+00 -0.64930732323E+04  0.65000000000E+04  0.30000000000E+03 0.  1.
     100001    1    1    2    0    0 -0.21378639839E+04  0.24942990205E+04 -0.56067245101E+04  0.65000000000E+04  0.15050000000E+03 0.  1.
     100001    1    1    2    0    0  0.21378639839E+04 -0.24942990205E+04  0.56067245101E+04  0.65000000000E+04  0.15050000000E+03 0. -1.
</event>
<event>
 4    1  0.5640637E-004  0.6500000E+04  0.7818608E-02  0.7223770E-01
         52   -1    0    0    0    0  0.00000000000E+00  0.00000000000E+00  0.64930732323E+04  0.65000000000E+04  0.30000000000E+03 0. -1.
        -52   -1    0    0    0    0 -0.00000000000E+00 -0.00000000000E+00 -0.64930732323E+04  0.65000000000E+04  0.30000000000E+03 0.  1.
     100001    1    1    2    0    0  0.20725542344E+04 -0.22451842549E+04 -0.57350689932E+04  0.65000000000E+04  0.15050000000E+03 0.  1.
     100001    1    1    2    0    0 -0.20725542344E+04  0.22451842549E+04  0.57350689932E+04  0.65000000000E+04  0.15050000000E+03 0. -1.
</event>
<event>
 4    1  0.5640637E-004  0.6500000E+04  0.7818608E-02  0.7223770E-01
         52   -1    0    0    0    0  0.00000000000E+00  0.00000000000E+00  0.64930732323E+04  0.65000000000E+04  0.30000000000E+03 0.  1.
        -52   -1    0    0    0    0 -0.00000000000E+00 -0.00000000000E+00 -0.64930732323E+04  0.65000000000E+04  0.30000000000E+03 0. -1.
     100001    1    1    2    0    0 -0.17620589368E+04  0.29294048555E+03 -0.62479343727E+04  0.65000000000E+04  0.15050000000E+03 0. -1.
     100001    1    1    2    0    0  0.17620589368E+04 -0.29294048555E+03  0.62479343727E+04  0.65000000000E+04  0.15050000000E+03 0.  1.
</event>
<event>
 4    1  0.5640637E-004  0.6500000E+04  0.7818608E-02  0.7223770E-01
         52   -1    0    0    0    0  0.00000000000E+00  0.00000000000E+00  0.64930732323E+04  0.65000000000E+04  0.30000000000E+03 0.  1.
        -52   -1    0    0    0    0 -0.00000000000E+00 -0.00000000000E+00 -0.64930732323E+04  0.65000000000E+04  0.30000000000E+03 0. -1.
     100001    1    1    2    0    0  0.40985625702E+04  0.28518333150E+04  0.41588677969E+04  0.65000000000E+04  0.15050000000E+03 0.  1.
     100001    1    1    2    0    0 -0.40985625702E+04 -0.28518333150E+04 -0.41588677969E+04  0.65000000000E+04  0.15050000000E+03 0. -1.
</event>
<event>
 4    1  0.5640637E-004  0.6500000E+04  0.7818608E-02  0.7223770E-01
         52   -1    0    0    0    0  0.00000000000E+00  0.00000000000E+00  0.64930732323E+04  0.65000000000E+04  0.30000000000E+03 0. -1.
        -52   -1    0    0    0    0 -0.00000000000E+00 -0.00000000000E+00 -0.64930732323E+04  0.65000000000E+04  0.30000000000E+03 0.  1.
     100001    1    1    2    0    0  0.97136862490E+03 -0.16561177357E+03  0.64231118226E+04  0.65000000000E+04  0.15050000000E+03 0. -1.
     100001    1    1    2    0    0 -0.97136862490E+03  0.16561177357E+03 -0.64231118226E+04  0.65000000000E+04  0.15050000000E+03 0.  1.
</event>
<event>
 4    1  0.5640637E-004  0.6500000E+04  0.7818608E-02  0.7223770E-01
         52   -1    0    0    0    0  0.00000000000E+00  0.00000000000E+00  0.64930732323E+04  0.65000000000E+04  0.30000000000E+03 0. -1.
        -52   -1    0    0    0    0 -0.00000000000E+00 -0.00000000000E+00 -0.64930732323E+04  0.65000000000E+04  0.30000000000E+03 0.  1.
     100001    1    1    2    0    0 -0.70432187654E+03  0.19444957702E+04 -0.61603747162E+04  0.65000000000E+04  0.15050000000E+03 0.  1.
     100001    1    1    2    0    0  0.70432187654E+03 -0.19444957702E+04  0.61603747162E+04  0.65000000000E+04  0.15050000000E+03 0. -1.
</event>
<event>
 4    1  0.5640637E-004  0.6500000E+04  0.7818608E-02  0.7223770E-01
         52   -1    0    0    0    0  0.00000000000E+00  0.00000000000E+00  0.64930732323E+04  0.65000000000E+04  0.30000000000E+03 0.  1.
        -52   -1    0    0    0    0 -0.00000000000E+00 -0.00000000000E+00 -0.64930732323E+04  0.65000000000E+04  0.30000000000E+03 0. -1.
     100001    1    1    2    0    0  0.17795347252E+04 -0.38756214396E+04  0.49030770307E+04  0.65000000000E+04  0.15050000000E+03 0.  1.
     100001    1    1    2    0    0 -0.17795347252E+04  0.38756214396E+04 -0.49030770307E+04  0.65000000000E+04  0.15050000000E+03 0. -1.
</event>
<event>
 4    1  0.5640637E-004  0.6500000E+04  0.7818608E-02  0.7223770E-01
         52   -1    0    0    0    0  0.00000000000E+00  0.00000000000E+00  0.64930732323E+04  0.65000000000E+04  0.30000000000E+03 0.  1.
        -52   -1    0    0    0    0 -0.00000000000E+00 -0.00000000000E+00 -0.64930732323E+04  0.65000000000E+04  0.30000000000E+03 0. -1.
     100001    1    1    2    0    0 -0.11715613590E+04 -0.30416949664E+04  0.56216443736E+04  0.65000000000E+04  0.15050000000E+03 0.  1.
     100001    1    1    2    0    0  0.11715613590E+04  0.30416949664E+04 -0.56216443736E+04  0.65000000000E+04  0.15050000000E+03 0. -1.
</event>
<event>
 4    1  0.5640637E-004  0.6500000E+04  0.7818608E-02  0.7223770E-01
         52   -1    0    0    0    0  0.00000000000E+00  0.00000000000E+00  0.64930732323E+04  0.65000000000E+04  0.30000000000E+03 0. -1.
        -52   -1    0    0    0    0 -0.00000000000E+00 -0.00000000000E+00 -0.64930732323E+04  0.65000000000E+04  0.30000000000E+03 0. -1.
     100001    1    1    2    0    0 -0.25544683090E+03  0.16957504165E+03  0.64910200255E+04  0.65000000000E+04  0.15050000000E+03 0. -1.
     100001    1    1    2    0    0  0.25544683090E+03 -0.16957504165E+03 -0.64910200255E+04  0.65000000000E+04  0.15050000000E+03 0. -1.
</event>
<event>
 4    1  0.5640637E-004  0.6500000E+04  0.7818608E-02  0.7223770E-01
         52   -1    0    0    0    0  0.00000000000E+00  0.00000000000E+00  0.64930732323E+04  0.65000000000E+04  0.30000000000E+03 0.  1.
        -52   -1    0    0    0    0 -0.00000000000E+00 -0.00000000000E+00 -0.64930732323E+04  0.65000000000E+04  0.30000000000E+03 0. -1.
     100001    1    1    2    0    0 -0.97985252822E+03 -0.39757957678E+03 -0.64116432568E+04  0.65000000000E+04  0.15050000000E+03 0. -1.
     100001    1    1    2    0    0  0.97985252822E+03  0.39757957678E+03  0.64116432568E+04  0.65000000000E+04  0.15050000000E+03 0.  1.
</event>
<event>
 4    1  0.5640637E-004  0.6500000E+04  0.7818608E-02  0.7223770E-01
         52   -1    0    0    0    0  0.00000000000E+00  0.00000000000E+00  0.64930732323E+04  0.65000000000E+04  0.30000000000E+03 0. -1.
        -52   -1    0    0    0    0 -0.00000000000E+00 -0.00000000000E+00 -0.64930732323E+04  0.65000000000E+04  0.30000000000E+03 0.  1.
     100001    1    1    2    0    0 -0.14426687638E+04  0.36349436977E+03 -0.63256563637E+04  0.65000000000E+04  0.15050000000E+03 0.  1.
     100001    1    1    2    0    0  0.14426687638E+04 -0.36349436977E+03  0.63256563637E+04  0.65000000000E+04  0.15050000000E+03 0. -1.
</event>
<event>
 4    1  0.5640637E-004  0.6500000E+04  0.7818608E-02  0.7223770E-01
         52   -1    0    0    0    0  0.00000000000E+00  0.00000000000E+00  0.64930732323E+04  0.65000000000E+04  0.30000000000E+03 0. -1.
        -52   -1    0    0    0    0 -0.00000000000E+00 -0.00000000000E+00 -0.64930732323E+04  0.65000000000E+04  0.30000000000E+03 0.  1.
     100001    1    1    2    0    0 -0.47968622594E+03  0.10699329308E+04  0.63915956066E+04  0.65000000000E+04  0.15050000000E+03 0. -1.
     100001    1    1    2    0    0  0.47968622594E+03 -0.10699329308E+04 -0.63915956066E+04  0.65000000000E+04  0.15050000000E+03 0.  1.
</event>
<event>
 4    1  0.5640637E-004  0.6500000E+04  0.7818608E-02  0.7223770E-01
         52   -1    0    0    0    0  0.00000000000E+00  0.00000000000E+00  0.64930732323E+04  0.65000000000E+04  0.30000000000E+03 0.  1.
        -52   -1    0    0    0    0 -0.00000000000E+00 -0.00000000000E+00 -0.64930732323E+04  0.65000000000E+04  0.30000000000E+03 0. -1.
     100001    1    1    2    0    0  0.99392929677E+02 -0.32661287962E+03 -0.64892830746E+04  0.65000000000E+04  0.15050000000E+03 0. -1.
     100001    1    1    2    0    0 -0.99392929677E+02  0.32661287962E+03  0.64892830746E+04  0.65000000000E+04  0.15050000000E+03 0.  1.
</event>
<event>
 4    1  0.5640637E-004  0.6500000E+04  0.7818608E-02  0.7223770E-01
         52   -1    0    0    0    0  0.00000000000E+00  0.00000000000E+00  0.64930732323E+04  0.65000000000E+04  0.30000000000E+03 0.  1.
        -52   -1    0    0    0    0 -0.00000000000E+00 -0.00000000000E+00 -0.64930732323E+04  0.65000000000E+04  0.30000000000E+03 0. -1.
     100001    1    1    2    0    0  0.21111505405E+04  0.27041082667E+03  0.61398103497E+04  0.65000000000E+04  0.15050000000E+03 0.  1.
     100001    1    1    2    0    0 -0.21111505405E+04 -0.27041082667E+03 -0.61398103497E+04  0.65000000000E+04  0.15050000000E+03 0. -1.
</event>
<event>
 4    1  0.5640637E-004  0.6500000E+04  0.7818608E-02  0.7223770E-01
         52   -1    0    0    0    0  0.00000000000E+00  0.00000000000E+00  0.64930732323E+04  0.65000000000E+04  0.30000000000E+03 0. -1.
        -52   -1    0    0    0    0 -0.00000000000E+00 -0.00000000000E+00 -0.64930732323E+04  0.65000000000E+04  0.30000000000E+03 0.  1.
     100001    1    1    2    0    0  0.34424687270E+03 -0.15447560847E+03  0.64872938215E+04  0.65000000000E+04  0.15050000000E+03 0. -1.
     100001    1    1    2    0    0 -0.34424687270E+03  0.15447560847E+03 -0.64872938215E+04  0.65000000000E+04  0.15050000000E+03 0.  1.
</event>
<event>
 4    1  0.5640637E-004  0.6500000E+04  0.7818608E-02  0.7223770E-01
         52   -1    0    0    0    0  0.00000000000E+00  0.00000000000E+00  0.64930732323E+04  0.65000000000E+04  0.30000000000E+03 0. -1.
        -52   -1    0    0    0    0 -0.00000000000E+00 -0.00000000000E+00 -0.64930732323E+04  0.65000000000E+04  0.30000000000E+03 0.  1.
     100001    1    1    2    0    0 -0.56264181587E+03 -0.99500327409E+03 -0.63969330481E+04  0.65000000000E+04  0.15050000000E+03 0.  1.
     100001    1    1    2    0    0  0.56264181587E+03  0.99500327409E+03  0.63969330481E+04  0.65000000000E+04  0.15050000000E+03 0. -1.
</event>
<event>
 4    1  0.5640637E-004  0.6500000E+04  0.7818608E-02  0.7223770E-01
         52   -1    0    0    0    0  0.00000000000E+00  0.00000000000E+00  0.64930732323E+04  0.65000000000E+04  0.30000000000E+03 0.  1.
        -52   -1    0    0    0    0 -0.00000000000E+00 -0.00000000000E+00 -0.64930732323E+04  0.65000000000E+04  0.30000000000E+03 0. -1.
     100001    1    1    2    0    0  0.26399372160E+04  0.42873427867E+04 -0.41081349874E+04  0.65000000000E+04  0.15050000000E+03 0. -1.
     100001    1    1    2    0    0 -0.26399372160E+04 -0.42873427867E+04  0.41081349874E+04  0.65000000000E+04  0.15050000000E+03 0.  1.
</event>
<event>
 4    1  0.5640637E-004  0.6500000E+04  0.7818608E-02  0.7223770E-01
         52   -1    0    0    0    0  0.00000000000E+00  0.00000000000E+00  0.64930732323E+04  0.65000000000E+04  0.30000000000E+03 0. -1.
        -52   -1    0    0    0    0 -0.00000000000E+00 -0.00000000000E+00 -0.64930732323E+04  0.65000000000E+04  0.30000000000E+03 0.  1.
     100001    1    1    2    0    0  0.11481432850E+04  0.19684137745E+04  0.60855947909E+04  0.65000000000E+04  0.15050000000E+03 0. -1.
     100001    1    1    2    0    0 -0.11481432850E+04 -0.19684137745E+04 -0.60855947909E+04  0.65000000000E+04  0.15050000000E+03 0.  1.
</event>
<event>
 4    1  0.5640637E-004  0.6500000E+04  0.7818608E-02  0.7223770E-01
         52   -1    0    0    0    0  0.00000000000E+00  0.00000000000E+00  0.64930732323E+04  0.65000000000E+04  0.30000000000E+03 0. -1.
        -52   -1    0    0    0    0 -0.00000000000E+00 -0.00000000000E+00 -0.64930732323E+04  0.65000000000E+04  0.30000000000E+03 0.  1.
     100001    1    1    2    0    0  0.19970043343E+03 -0.42108034280E+04  0.49453618651E+04  0.65000000000E+04  0.15050000000E+03 0. -1.
     100001    1    1    2    0    0 -0.19970043343E+03  0.42108034280E+04 -0.49453618651E+04  0.65000000000E+04  0.15050000000E+03 0.  1.
</event>
<event>
 4    1  0.5640637E-004  0.6500000E+04  0.7818608E-02  0.7223770E-01
         52   -1    0    0    0    0  0.00000000000E+00  0.00000000000E+00  0.64930732323E+04  0.65000000000E+04  0.30000000000E+03 0. -1.
        -52   -1    0    0    0    0 -0.00000000000E+00 -0.00000000000E+00 -0.64930732323E+04  0.65000000000E+04  0.30000000000E+03 0.  1.
     100001    1    1    2    0    0  0.35633717577E+04 -0.42369426161E+04  0.34026531904E+04  0.65000000000E+04  0.15050000000E+03 0. -1.
     100001    1    1    2    0    0 -0.35633717577E+04  0.42369426161E+04 -0.34026531904E+04  0.65000000000E+04  0.15050000000E+03 0.  1.
</event>
<event>
 4    1  0.5640637E-004  0.6500000E+04  0.7818608E-02  0.7223770E-01
         52   -1    0    0    0    0  0.00000000000E+00  0.00000000000E+00  0.64930732323E+04  0.65000000000E+04  0.30000000000E+03 0.  1.
        -52   -1    0    0    0    0 -0.00000000000E+00 -0.00000000000E+00 -0.64930732323E+04  0.65000000000E+04  0.30000000000E+03 0. -1.
     100001    1    1    2    0    0  0.89126361869E+03 -0.27195642690E+04  0.58341211077E+04  0.65000000000E+04  0.15050000000E+03 0.  1.
     100001    1    1    2    0    0 -0.89126361869E+03  0.27195642690E+04 -0.58341211077E+04  0.65000000000E+04  0.15050000000E+03 0. -1.
</event>
<event>
 4    1  0.5640637E-004  0.6500000E+04  0.7818608E-02  0.7223770E-01
         52   -1    0    0    0    0  0.00000000000E+00  0.00000000000E+00  0.64930732323E+04  0.65000000000E+04  0.30000000000E+03 0. -1.
        -52   -1    0    0    0    0 -0.00000000000E+00 -0.00000000000E+00 -0.64930732323E+04  0.65000000000E+04  0.30000000000E+03 0. -1.
     100001    1    1    2    0    0 -0.63480180235E+03 -0.44976682432E+03 -0.64515181334E+04  0.65000000000E+04  0.15050000000E+03 0. -1.
     100001    1    1    2    0    0  0.63480180235E+03  0.44976682432E+03  0.64515181334E+04  0.65000000000E+04  0.15050000000E+03 0. -1.
</event>
<event>
 4    1  0.5640637E-004  0.6500000E+04  0.7818608E-02  0.7223770E-01
         52   -1    0    0    0    0  0.00000000000E+00  0.00000000000E+00  0.64930732323E+04  0.65000000000E+04  0.30000000000E+03 0.  1.
        -52   -1    0    0    0    0 -0.00000000000E+00 -0.00000000000E+00 -0.64930732323E+04  0.65000000000E+04  0.30000000000E+03 0. -1.
     100001    1    1    2    0    0  0.52669265233E+03 -0.25831113813E+04  0.59394848423E+04  0.65000000000E+04  0.15050000000E+03 0.  1.
     100001    1    1    2    0    0 -0.52669265233E+03  0.25831113813E+04 -0.59394848423E+04  0.65000000000E+04  0.15050000000E+03 0. -1.
</event>
<event>
 4    1  0.5640637E-004  0.6500000E+04  0.7818608E-02  0.7223770E-01
         52   -1    0    0    0    0  0.00000000000E+00  0.00000000000E+00  0.64930732323E+04  0.65000000000E+04  0.30000000000E+03 0.  1.
        -52   -1    0    0    0    0 -0.00000000000E+00 -0.00000000000E+00 -0.64930732323E+04  0.65000000000E+04  0.30000000000E+03 0. -1.
     100001    1    1    2    0    0  0.82106987681E+03  0.31835314172E+04 -0.56052048779E+04  0.65000000000E+04  0.15050000000E+03 0. -1.
     100001    1    1    2    0    0 -0.82106987681E+03 -0.31835314172E+04  0.56052048779E+04  0.65000000000E+04  0.15050000000E+03 0.  1.
</event>
<event>
 4    1  0.5640637E-004  0.6500000E+04  0.7818608E-02  0.7223770E-01
         52   -1    0    0    0    0  0.00000000000E+00  0.00000000000E+00  0.64930732323E+04  0.65000000000E+04  0.30000000000E+03 0. -1.
        -52   -1    0    0    0    0 -0.00000000000E+00 -0.00000000000E+00 -0.64930732323E+04  0.65000000000E+04  0.30000000000E+03 0.  1.
     100001    1    1    2    0    0  0.10943454897E+04  0.43584701372E+03 -0.63906020905E+04  0.65000000000E+04  0.15050000000E+03 0.  1.
     100001    1    1    2    0    0 -0.10943454897E+04 -0.43584701372E+03  0.63906020905E+04  0.65000000000E+04  0.15050000000E+03 0. -1.
</event>
<event>
 4    1  0.5640637E-004  0.6500000E+04  0.7818608E-02  0.7223770E-01
         52   -1    0    0    0    0  0.00000000000E+00  0.00000000000E+00  0.64930732323E+04  0.65000000000E+04  0.30000000000E+03 0. -1.
        -52   -1    0    0    0    0 -0.00000000000E+00 -0.00000000000E+00 -0.64930732323E+04  0.65000000000E+04  0.30000000000E+03 0.  1.
     100001    1    1    2    0    0  0.32353546594E+04  0.51073810329E+03  0.56123949048E+04  0.65000000000E+04  0.15050000000E+03 0. -1.
     100001    1    1    2    0    0 -0.32353546594E+04 -0.51073810329E+03 -0.56123949048E+04  0.65000000000E+04  0.15050000000E+03 0.  1.
</event>
<event>
 4    1  0.5640637E-004  0.6500000E+04  0.7818608E-02  0.7223770E-01
         52   -1    0    0    0    0  0.00000000000E+00  0.00000000000E+00  0.64930732323E+04  0.65000000000E+04  0.30000000000E+03 0. -1.
        -52   -1    0    0    0    0 -0.00000000000E+00 -0.00000000000E+00 -0.64930732323E+04  0.65000000000E+04  0.30000000000E+03 0.  1.
     100001    1    1    2    0    0 -0.31600361325E+04  0.17824935956E+04  0.53911258539E+04  0.65000000000E+04  0.15050000000E+03 0. -1.
     100001    1    1    2    0    0  0.31600361325E+04 -0.17824935956E+04 -0.53911258539E+04  0.65000000000E+04  0.15050000000E+03 0.  1.
</event>
<event>
 4    1  0.5640637E-004  0.6500000E+04  0.7818608E-02  0.7223770E-01
         52   -1    0    0    0    0  0.00000000000E+00  0.00000000000E+00  0.64930732323E+04  0.65000000000E+04  0.30000000000E+03 0.  1.
        -52   -1    0    0    0    0 -0.00000000000E+00 -0.00000000000E+00 -0.64930732323E+04  0.65000000000E+04  0.30000000000E+03 0. -1.
     100001    1    1    2    0    0  0.91189255404E+03  0.77091583140E+03  0.63876044415E+04  0.65000000000E+04  0.15050000000E+03 0.  1.
     100001    1    1    2    0    0 -0.91189255404E+03 -0.77091583140E+03 -0.63876044415E+04  0.65000000000E+04  0.15050000000E+03 0. -1.
</event>
<event>
 4    1  0.5640637E-004  0.6500000E+04  0.7818608E-02  0.7223770E-01
         52   -1    0    0    0    0  0.00000000000E+00  0.00000000000E+00  0.64930732323E+04  0.65000000000E+04  0.30000000000E+03 0. -1.
        -52   -1    0    0    0    0 -0.00000000000E+00 -0.00000000000E+00 -0.64930732323E+04  0.65000000000E+04  0.30000000000E+03 0.  1.
     100001    1    1    2    0    0 -0.44469112961E+03  0.41935754424E+03 -0.64694465605E+04  0.65000000000E+04  0.15050000000E+03 0.  1.
     100001    1    1    2    0    0  0.44469112961E+03 -0.41935754424E+03  0.64694465605E+04  0.65000000000E+04  0.15050000000E+03 0. -1.
</event>
<event>
 4    1  0.5640637E-004  0.6500000E+04  0.7818608E-02  0.7223770E-01
         52   -1    0    0    0    0  0.00000000000E+00  0.00000000000E+00  0.64930732323E+04  0.65000000000E+04  0.30000000000E+03 0.  1.
        -52   -1    0    0    0    0 -0.00000000000E+00 -0.00000000000E+00 -0.64930732323E+04  0.65000000000E+04  0.30000000000E+03 0. -1.
     100001    1    1    2    0    0 -0.63396192155E+04 -0.10673535172E+03 -0.14230901298E+04  0.65000000000E+04  0.15050000000E+03 0. -1.
     100001    1    1    2    0    0  0.63396192155E+04  0.10673535172E+03  0.14230901298E+04  0.65000000000E+04  0.15050000000E+03 0.  1.
</event>
<event>
 4    1  0.5640637E-004  0.6500000E+04  0.7818608E-02  0.7223770E-01
         52   -1    0    0    0    0  0.00000000000E+00  0.00000000000E+00  0.64930732323E+04  0.65000000000E+04  0.30000000000E+03 0. -1.
        -52   -1    0    0    0    0 -0.00000000000E+00 -0.00000000000E+00 -0.64930732323E+04  0.65000000000E+04  0.30000000000E+03 0.  1.
     100001    1    1    2    0    0 -0.30082002721E+04 -0.28495690389E+04  0.50058003522E+04  0.65000000000E+04  0.15050000000E+03 0. -1.
     100001    1    1    2    0    0  0.30082002721E+04  0.28495690389E+04 -0.50058003522E+04  0.65000000000E+04  0.15050000000E+03 0.  1.
</event>
<event>
 4    1  0.5640637E-004  0.6500000E+04  0.7818608E-02  0.7223770E-01
         52   -1    0    0    0    0  0.00000000000E+00  0.00000000000E+00  0.64930732323E+04  0.65000000000E+04  0.30000000000E+03 0.  1.
        -52   -1    0    0    0    0 -0.00000000000E+00 -0.00000000000E+00 -0.64930732323E+04  0.65000000000E+04  0.30000000000E+03 0.  1.
     100001    1    1    2    0    0  0.51449390030E+02 -0.45934756992E+03  0.64817977846E+04  0.65000000000E+04  0.15050000000E+03 0.  1.
     100001    1    1    2    0    0 -0.51449390030E+02  0.45934756992E+03 -0.64817977846E+04  0.65000000000E+04  0.15050000000E+03 0.  1.
</event>
<event>
 4    1  0.5640637E-004  0.6500000E+04  0.7818608E-02  0.7223770E-01
         52   -1    0    0    0    0  0.00000000000E+00  0.00000000000E+00  0.64930732323E+04  0.65000000000E+04  0.30000000000E+03 0. -1.
        -52   -1    0    0    0    0 -0.00000000000E+00 -0.00000000000E+00 -0.64930732323E+04  0.65000000000E+04  0.30000000000E+03 0.  1.
     100001    1    1    2    0    0  0.37732657385E+03 -0.20035118752E+04 -0.61701632533E+04  0.65000000000E+04  0.15050000000E+03 0.  1.
     100001    1    1    2    0    0 -0.37732657385E+03  0.20035118752E+04  0.61701632533E+04  0.65000000000E+04  0.15050000000E+03 0. -1.
</event>
<event>
 4    1  0.8406825E-004  0.6500000E+04  0.7818608E-02  0.7223770E-01
         52   -1    0    0    0    0  0.00000000000E+00  0.00000000000E+00  0.64930732323E+04  0.65000000000E+04  0.30000000000E+03 0.  1.
        -52   -1    0    0    0    0 -0.00000000000E+00 -0.00000000000E+00 -0.64930732323E+04  0.65000000000E+04  0.30000000000E+03 0.  1.
     100001    1    1    2    0    0  0.73391311264E+02 -0.10106942050E+03 -0.64970569058E+04  0.65000000000E+04  0.15050000000E+03 0.  1.
     100001    1    1    2    0    0 -0.73391311264E+02  0.10106942050E+03  0.64970569058E+04  0.65000000000E+04  0.15050000000E+03 0.  1.
</event>
<event>
 4    1  0.5640637E-004  0.6500000E+04  0.7818608E-02  0.7223770E-01
         52   -1    0    0    0    0  0.00000000000E+00  0.00000000000E+00  0.64930732323E+04  0.65000000000E+04  0.30000000000E+03 0. -1.
        -52   -1    0    0    0    0 -0.00000000000E+00 -0.00000000000E+00 -0.64930732323E+04  0.65000000000E+04  0.30000000000E+03 0. -1.
     100001    1    1    2    0    0  0.49150715146E+02 -0.81520597126E+00 -0.64980715057E+04  0.65000000000E+04  0.15050000000E+03 0. -1.
     100001    1    1    2    0    0 -0.49150715146E+02  0.81520597126E+00  0.64980715057E+04  0.65000000000E+04  0.15050000000E+03 0. -1.
</event>
<event>
 4    1  0.5640637E-004  0.6500000E+04  0.7818608E-02  0.7223770E-01
         52   -1    0    0    0    0  0.00000000000E+00  0.00000000000E+00  0.64930732323E+04  0.65000000000E+04  0.30000000000E+03 0. -1.
        -52   -1    0    0    0    0 -0.00000000000E+00 -0.00000000000E+00 -0.64930732323E+04  0.65000000000E+04  0.30000000000E+03 0. -1.
     100001    1    1    2    0    0 -0.13684782408E+02  0.34416804237E+03 -0.64891225012E+04  0.65000000000E+04  0.15050000000E+03 0. -1.
     100001    1    1    2    0    0  0.13684782408E+02 -0.34416804237E+03  0.64891225012E+04  0.65000000000E+04  0.15050000000E+03 0. -1.
</event>
<event>
 4    1  0.5640637E-004  0.6500000E+04  0.7818608E-02  0.7223770E-01
         52   -1    0    0    0    0  0.00000000000E+00  0.00000000000E+00  0.64930732323E+04  0.65000000000E+04  0.30000000000E+03 0.  1.
        -52   -1    0    0    0    0 -0.00000000000E+00 -0.00000000000E+00 -0.64930732323E+04  0.65000000000E+04  0.30000000000E+03 0. -1.
     100001    1    1    2    0    0  0.17660686922E+03 -0.64616148630E+04 -0.66610293913E+03  0.65000000000E+04  0.15050000000E+03 0. -1.
     100001    1    1    2    0    0 -0.17660686922E+03  0.64616148630E+04  0.66610293913E+03  0.65000000000E+04  0.15050000000E+03 0.  1.
</event>
<event>
 4    1  0.5640637E-004  0.6500000E+04  0.7818608E-02  0.7223770E-01
         52   -1    0    0    0    0  0.00000000000E+00  0.00000000000E+00  0.64930732323E+04  0.65000000000E+04  0.30000000000E+03 0. -1.
        -52   -1    0    0    0    0 -0.00000000000E+00 -0.00000000000E+00 -0.64930732323E+04  0.65000000000E+04  0.30000000000E+03 0.  1.
     100001    1    1    2    0    0  0.13619162260E+04 -0.13723215961E+04  0.62039719036E+04  0.65000000000E+04  0.15050000000E+03 0. -1.
     100001    1    1    2    0    0 -0.13619162260E+04  0.13723215961E+04 -0.62039719036E+04  0.65000000000E+04  0.15050000000E+03 0.  1.
</event>
<event>
 4    1  0.5640637E-004  0.6500000E+04  0.7818608E-02  0.7223770E-01
         52   -1    0    0    0    0  0.00000000000E+00  0.00000000000E+00  0.64930732323E+04  0.65000000000E+04  0.30000000000E+03 0.  1.
        -52   -1    0    0    0    0 -0.00000000000E+00 -0.00000000000E+00 -0.64930732323E+04  0.65000000000E+04  0.30000000000E+03 0. -1.
     100001    1    1    2    0    0  0.15148937775E+02 -0.18283925488E+04 -0.62357117434E+04  0.65000000000E+04  0.15050000000E+03 0. -1.
     100001    1    1    2    0    0 -0.15148937775E+02  0.18283925488E+04  0.62357117434E+04  0.65000000000E+04  0.15050000000E+03 0.  1.
</event>
<event>
 4    1  0.5640637E-004  0.6500000E+04  0.7818608E-02  0.7223770E-01
         52   -1    0    0    0    0  0.00000000000E+00  0.00000000000E+00  0.64930732323E+04  0.65000000000E+04  0.30000000000E+03 0.  1.
        -52   -1    0    0    0    0 -0.00000000000E+00 -0.00000000000E+00 -0.64930732323E+04  0.65000000000E+04  0.30000000000E+03 0. -1.
     100001    1    1    2    0    0  0.40863338231E+03 -0.34604930142E+04  0.54850119970E+04  0.65000000000E+04  0.15050000000E+03 0.  1.
     100001    1    1    2    0    0 -0.40863338231E+03  0.34604930142E+04 -0.54850119970E+04  0.65000000000E+04  0.15050000000E+03 0. -1.
</event>
<event>
 4    1  0.5640637E-004  0.6500000E+04  0.7818608E-02  0.7223770E-01
         52   -1    0    0    0    0  0.00000000000E+00  0.00000000000E+00  0.64930732323E+04  0.65000000000E+04  0.30000000000E+03 0.  1.
        -52   -1    0    0    0    0 -0.00000000000E+00 -0.00000000000E+00 -0.64930732323E+04  0.65000000000E+04  0.30000000000E+03 0. -1.
     100001    1    1    2    0    0 -0.86805501035E+03  0.16447648123E+04 -0.62264419183E+04  0.65000000000E+04  0.15050000000E+03 0. -1.
     100001    1    1    2    0    0  0.86805501035E+03 -0.16447648123E+04  0.62264419183E+04  0.65000000000E+04  0.15050000000E+03 0.  1.
</event>
<event>
 4    1  0.5640637E-004  0.6500000E+04  0.7818608E-02  0.7223770E-01
         52   -1    0    0    0    0  0.00000000000E+00  0.00000000000E+00  0.64930732323E+04  0.65000000000E+04  0.30000000000E+03 0. -1.
        -52   -1    0    0    0    0 -0.00000000000E+00 -0.00000000000E+00 -0.64930732323E+04  0.65000000000E+04  0.30000000000E+03 0.  1.
     100001    1    1    2    0    0 -0.60313436253E+04  0.84773264867E+03 -0.22653020063E+04  0.65000000000E+04  0.15050000000E+03 0.  1.
     100001    1    1    2    0    0  0.60313436253E+04 -0.84773264867E+03  0.22653020063E+04  0.65000000000E+04  0.15050000000E+03 0. -1.
</event>
<event>
 4    1  0.5640637E-004  0.6500000E+04  0.7818608E-02  0.7223770E-01
         52   -1    0    0    0    0  0.00000000000E+00  0.00000000000E+00  0.64930732323E+04  0.65000000000E+04  0.30000000000E+03 0. -1.
        -52   -1    0    0    0    0 -0.00000000000E+00 -0.00000000000E+00 -0.64930732323E+04  0.65000000000E+04  0.30000000000E+03 0.  1.
     100001    1    1    2    0    0 -0.84939362107E+03 -0.52391537054E+03  0.64211675660E+04  0.65000000000E+04  0.15050000000E+03 0. -1.
     100001    1    1    2    0    0  0.84939362107E+03  0.52391537054E+03 -0.64211675660E+04  0.65000000000E+04  0.15050000000E+03 0.  1.
</event>
<event>
 4    1  0.5640637E-004  0.6500000E+04  0.7818608E-02  0.7223770E-01
         52   -1    0    0    0    0  0.00000000000E+00  0.00000000000E+00  0.64930732323E+04  0.65000000000E+04  0.30000000000E+03 0. -1.
        -52   -1    0    0    0    0 -0.00000000000E+00 -0.00000000000E+00 -0.64930732323E+04  0.65000000000E+04  0.30000000000E+03 0.  1.
     100001    1    1    2    0    0  0.50252942512E+03 -0.48830304916E+04 -0.42580309000E+04  0.65000000000E+04  0.15050000000E+03 0.  1.
     100001    1    1    2    0    0 -0.50252942512E+03  0.48830304916E+04  0.42580309000E+04  0.65000000000E+04  0.15050000000E+03 0. -1.
</event>
<event>
 4    1  0.5640637E-004  0.6500000E+04  0.7818608E-02  0.7223770E-01
         52   -1    0    0    0    0  0.00000000000E+00  0.00000000000E+00  0.64930732323E+04  0.65000000000E+04  0.30000000000E+03 0. -1.
        -52   -1    0    0    0    0 -0.00000000000E+00 -0.00000000000E+00 -0.64930732323E+04  0.65000000000E+04  0.30000000000E+03 0.  1.
     100001    1    1    2    0    0 -0.14303355897E+04 -0.17329434316E+04  0.60974090328E+04  0.65000000000E+04  0.15050000000E+03 0. -1.
     100001    1    1    2    0    0  0.14303355897E+04  0.17329434316E+04 -0.60974090328E+04  0.65000000000E+04  0.15050000000E+03 0.  1.
</event>
<event>
 4    1  0.5640637E-004  0.6500000E+04  0.7818608E-02  0.7223770E-01
         52   -1    0    0    0    0  0.00000000000E+00  0.00000000000E+00  0.64930732323E+04  0.65000000000E+04  0.30000000000E+03 0. -1.
        -52   -1    0    0    0    0 -0.00000000000E+00 -0.00000000000E+00 -0.64930732323E+04  0.65000000000E+04  0.30000000000E+03 0.  1.
     100001    1    1    2    0    0  0.36968952091E+03 -0.42586746212E+03  0.64737405194E+04  0.65000000000E+04  0.15050000000E+03 0. -1.
     100001    1    1    2    0    0 -0.36968952091E+03  0.42586746212E+03 -0.64737405194E+04  0.65000000000E+04  0.15050000000E+03 0.  1.
</event>
<event>
 4    1  0.5640637E-004  0.6500000E+04  0.7818608E-02  0.7223770E-01
         52   -1    0    0    0    0  0.00000000000E+00  0.00000000000E+00  0.64930732323E+04  0.65000000000E+04  0.30000000000E+03 0. -1.
        -52   -1    0    0    0    0 -0.00000000000E+00 -0.00000000000E+00 -0.64930732323E+04  0.65000000000E+04  0.30000000000E+03 0.  1.
     100001    1    1    2    0    0 -0.72052350538E+03 -0.20762265247E+03 -0.64548499953E+04  0.65000000000E+04  0.15050000000E+03 0.  1.
     100001    1    1    2    0    0  0.72052350538E+03  0.20762265247E+03  0.64548499953E+04  0.65000000000E+04  0.15050000000E+03 0. -1.
</event>
<event>
 4    1  0.5640637E-004  0.6500000E+04  0.7818608E-02  0.7223770E-01
         52   -1    0    0    0    0  0.00000000000E+00  0.00000000000E+00  0.64930732323E+04  0.65000000000E+04  0.30000000000E+03 0.  1.
        -52   -1    0    0    0    0 -0.00000000000E+00 -0.00000000000E+00 -0.64930732323E+04  0.65000000000E+04  0.30000000000E+03 0. -1.
     100001    1    1    2    0    0 -0.48871803075E+04 -0.38301968003E+04 -0.19163535328E+04  0.65000000000E+04  0.15050000000E+03 0. -1.
     100001    1    1    2    0    0  0.48871803075E+04  0.38301968003E+04  0.19163535328E+04  0.65000000000E+04  0.15050000000E+03 0.  1.
</event>
<event>
 4    1  0.5640637E-004  0.6500000E+04  0.7818608E-02  0.7223770E-01
         52   -1    0    0    0    0  0.00000000000E+00  0.00000000000E+00  0.64930732323E+04  0.65000000000E+04  0.30000000000E+03 0.  1.
        -52   -1    0    0    0    0 -0.00000000000E+00 -0.00000000000E+00 -0.64930732323E+04  0.65000000000E+04  0.30000000000E+03 0. -1.
     100001    1    1    2    0    0 -0.71368723096E+03 -0.12188492035E+04 -0.63429020886E+04  0.65000000000E+04  0.15050000000E+03 0. -1.
     100001    1    1    2    0    0  0.71368723096E+03  0.12188492035E+04  0.63429020886E+04  0.65000000000E+04  0.15050000000E+03 0.  1.
</event>
<event>
 4    1  0.5640637E-004  0.6500000E+04  0.7818608E-02  0.7223770E-01
         52   -1    0    0    0    0  0.00000000000E+00  0.00000000000E+00  0.64930732323E+04  0.65000000000E+04  0.30000000000E+03 0.  1.
        -52   -1    0    0    0    0 -0.00000000000E+00 -0.00000000000E+00 -0.64930732323E+04  0.65000000000E+04  0.30000000000E+03 0. -1.
     100001    1    1    2    0    0 -0.14875126465E+04  0.36718761202E+03 -0.63150478331E+04  0.65000000000E+04  0.15050000000E+03 0. -1.
     100001    1    1    2    0    0  0.14875126465E+04 -0.36718761202E+03  0.63150478331E+04  0.65000000000E+04  0.15050000000E+03 0.  1.
</event>
<event>
 4    1  0.5640637E-004  0.6500000E+04  0.7818608E-02  0.7223770E-01
         52   -1    0    0    0    0  0.00000000000E+00  0.00000000000E+00  0.64930732323E+04  0.65000000000E+04  0.30000000000E+03 0. -1.
        -52   -1    0    0    0    0 -0.00000000000E+00 -0.00000000000E+00 -0.64930732323E+04  0.65000000000E+04  0.30000000000E+03 0.  1.
     100001    1    1    2    0    0 -0.25875730816E+03  0.26989124163E+03 -0.64874920519E+04  0.65000000000E+04  0.15050000000E+03 0.  1.
     100001    1    1    2    0    0  0.25875730816E+03 -0.26989124163E+03  0.64874920519E+04  0.65000000000E+04  0.15050000000E+03 0. -1.
</event>
<event>
 4    1  0.5640637E-004  0.6500000E+04  0.7818608E-02  0.7223770E-01
         52   -1    0    0    0    0  0.00000000000E+00  0.00000000000E+00  0.64930732323E+04  0.65000000000E+04  0.30000000000E+03 0. -1.
        -52   -1    0    0    0    0 -0.00000000000E+00 -0.00000000000E+00 -0.64930732323E+04  0.65000000000E+04  0.30000000000E+03 0.  1.
     100001    1    1    2    0    0 -0.32146840865E+03  0.55419429161E+03  0.64665969798E+04  0.65000000000E+04  0.15050000000E+03 0. -1.
     100001    1    1    2    0    0  0.32146840865E+03 -0.55419429161E+03 -0.64665969798E+04  0.65000000000E+04  0.15050000000E+03 0.  1.
</event>
<event>
 4    1  0.5640637E-004  0.6500000E+04  0.7818608E-02  0.7223770E-01
         52   -1    0    0    0    0  0.00000000000E+00  0.00000000000E+00  0.64930732323E+04  0.65000000000E+04  0.30000000000E+03 0.  1.
        -52   -1    0    0    0    0 -0.00000000000E+00 -0.00000000000E+00 -0.64930732323E+04  0.65000000000E+04  0.30000000000E+03 0. -1.
     100001    1    1    2    0    0  0.29823023190E+03  0.43316074508E+03 -0.64769421989E+04  0.65000000000E+04  0.15050000000E+03 0. -1.
     100001    1    1    2    0    0 -0.29823023190E+03 -0.43316074508E+03  0.64769421989E+04  0.65000000000E+04  0.15050000000E+03 0.  1.
</event>
<event>
 4    1  0.5640637E-004  0.6500000E+04  0.7818608E-02  0.7223770E-01
         52   -1    0    0    0    0  0.00000000000E+00  0.00000000000E+00  0.64930732323E+04  0.65000000000E+04  0.30000000000E+03 0.  1.
        -52   -1    0    0    0    0 -0.00000000000E+00 -0.00000000000E+00 -0.64930732323E+04  0.65000000000E+04  0.30000000000E+03 0. -1.
     100001    1    1    2    0    0 -0.64829577846E+03 -0.26658955698E+04  0.58906759497E+04  0.65000000000E+04  0.15050000000E+03 0.  1.
     100001    1    1    2    0    0  0.64829577846E+03  0.26658955698E+04 -0.58906759497E+04  0.65000000000E+04  0.15050000000E+03 0. -1.
</event>
<event>
 4    1  0.5640637E-004  0.6500000E+04  0.7818608E-02  0.7223770E-01
         52   -1    0    0    0    0  0.00000000000E+00  0.00000000000E+00  0.64930732323E+04  0.65000000000E+04  0.30000000000E+03 0.  1.
        -52   -1    0    0    0    0 -0.00000000000E+00 -0.00000000000E+00 -0.64930732323E+04  0.65000000000E+04  0.30000000000E+03 0. -1.
     100001    1    1    2    0    0 -0.78046895555E+03 -0.30053301529E+04  0.57084331152E+04  0.65000000000E+04  0.15050000000E+03 0.  1.
     100001    1    1    2    0    0  0.78046895555E+03  0.30053301529E+04 -0.57084331152E+04  0.65000000000E+04  0.15050000000E+03 0. -1.
</event>
<event>
 4    1  0.5640637E-004  0.6500000E+04  0.7818608E-02  0.7223770E-01
         52   -1    0    0    0    0  0.00000000000E+00  0.00000000000E+00  0.64930732323E+04  0.65000000000E+04  0.30000000000E+03 0.  1.
        -52   -1    0    0    0    0 -0.00000000000E+00 -0.00000000000E+00 -0.64930732323E+04  0.65000000000E+04  0.30000000000E+03 0. -1.
     100001    1    1    2    0    0 -0.73162357419E+03  0.29338634228E+04  0.57519146475E+04  0.65000000000E+04  0.15050000000E+03 0.  1.
     100001    1    1    2    0    0  0.73162357419E+03 -0.29338634228E+04 -0.57519146475E+04  0.65000000000E+04  0.15050000000E+03 0. -1.
</event>
<event>
 4    1  0.5640637E-004  0.6500000E+04  0.7818608E-02  0.7223770E-01
         52   -1    0    0    0    0  0.00000000000E+00  0.00000000000E+00  0.64930732323E+04  0.65000000000E+04  0.30000000000E+03 0. -1.
        -52   -1    0    0    0    0 -0.00000000000E+00 -0.00000000000E+00 -0.64930732323E+04  0.65000000000E+04  0.30000000000E+03 0.  1.
     100001    1    1    2    0    0 -0.67925386971E+03 -0.47681389698E+03  0.64450455730E+04  0.65000000000E+04  0.15050000000E+03 0. -1.
     100001    1    1    2    0    0  0.67925386971E+03  0.47681389698E+03 -0.64450455730E+04  0.65000000000E+04  0.15050000000E+03 0.  1.
</event>
<event>
 4    1  0.5640637E-004  0.6500000E+04  0.7818608E-02  0.7223770E-01
         52   -1    0    0    0    0  0.00000000000E+00  0.00000000000E+00  0.64930732323E+04  0.65000000000E+04  0.30000000000E+03 0. -1.
        -52   -1    0    0    0    0 -0.00000000000E+00 -0.00000000000E+00 -0.64930732323E+04  0.65000000000E+04  0.30000000000E+03 0.  1.
     100001    1    1    2    0    0  0.31594182321E+04 -0.43341303399E+04  0.36688881669E+04  0.65000000000E+04  0.15050000000E+03 0. -1.
     100001    1    1    2    0    0 -0.31594182321E+04  0.43341303399E+04 -0.36688881669E+04  0.65000000000E+04  0.15050000000E+03 0.  1.
</event>
<event>
 4    1  0.5640637E-004  0.6500000E+04  0.7818608E-02  0.7223770E-01
         52   -1    0    0    0    0  0.00000000000E+00  0.00000000000E+00  0.64930732323E+04  0.65000000000E+04  0.30000000000E+03 0. -1.
        -52   -1    0    0    0    0 -0.00000000000E+00 -0.00000000000E+00 -0.64930732323E+04  0.65000000000E+04  0.30000000000E+03 0. -1.
     100001    1    1    2    0    0  0.72038401126E+02 -0.12712648008E+04  0.63722873464E+04  0.65000000000E+04  0.15050000000E+03 0. -1.
     100001    1    1    2    0    0 -0.72038401126E+02  0.12712648008E+04 -0.63722873464E+04  0.65000000000E+04  0.15050000000E+03 0. -1.
</event>
<event>
 4    1  0.5640637E-004  0.6500000E+04  0.7818608E-02  0.7223770E-01
         52   -1    0    0    0    0  0.00000000000E+00  0.00000000000E+00  0.64930732323E+04  0.65000000000E+04  0.30000000000E+03 0.  1.
        -52   -1    0    0    0    0 -0.00000000000E+00 -0.00000000000E+00 -0.64930732323E+04  0.65000000000E+04  0.30000000000E+03 0. -1.
     100001    1    1    2    0    0 -0.80059359216E+03  0.63724874934E+03 -0.64171889236E+04  0.65000000000E+04  0.15050000000E+03 0. -1.
     100001    1    1    2    0    0  0.80059359216E+03 -0.63724874934E+03  0.64171889236E+04  0.65000000000E+04  0.15050000000E+03 0.  1.
</event>
<event>
 4    1  0.5640637E-004  0.6500000E+04  0.7818608E-02  0.7223770E-01
         52   -1    0    0    0    0  0.00000000000E+00  0.00000000000E+00  0.64930732323E+04  0.65000000000E+04  0.30000000000E+03 0.  1.
        -52   -1    0    0    0    0 -0.00000000000E+00 -0.00000000000E+00 -0.64930732323E+04  0.65000000000E+04  0.30000000000E+03 0. -1.
     100001    1    1    2    0    0 -0.18205562383E+04 -0.32597284077E+04  0.53185614071E+04  0.65000000000E+04  0.15050000000E+03 0.  1.
     100001    1    1    2    0    0  0.18205562383E+04  0.32597284077E+04 -0.53185614071E+04  0.65000000000E+04  0.15050000000E+03 0. -1.
</event>
<event>
 4    1  0.5640637E-004  0.6500000E+04  0.7818608E-02  0.7223770E-01
         52   -1    0    0    0    0  0.00000000000E+00  0.00000000000E+00  0.64930732323E+04  0.65000000000E+04  0.30000000000E+03 0. -1.
        -52   -1    0    0    0    0 -0.00000000000E+00 -0.00000000000E+00 -0.64930732323E+04  0.65000000000E+04  0.30000000000E+03 0.  1.
     100001    1    1    2    0    0 -0.21780110986E+03  0.13046020784E+04 -0.63622264848E+04  0.65000000000E+04  0.15050000000E+03 0.  1.
     100001    1    1    2    0    0  0.21780110986E+03 -0.13046020784E+04  0.63622264848E+04  0.65000000000E+04  0.15050000000E+03 0. -1.
</event>
<event>
 4    1  0.5640637E-004  0.6500000E+04  0.7818608E-02  0.7223770E-01
         52   -1    0    0    0    0  0.00000000000E+00  0.00000000000E+00  0.64930732323E+04  0.65000000000E+04  0.30000000000E+03 0.  1.
        -52   -1    0    0    0    0 -0.00000000000E+00 -0.00000000000E+00 -0.64930732323E+04  0.65000000000E+04  0.30000000000E+03 0. -1.
     100001    1    1    2    0    0 -0.30768366233E+03 -0.15821869751E+04 -0.62951858503E+04  0.65000000000E+04  0.15050000000E+03 0. -1.
     100001    1    1    2    0    0  0.30768366233E+03  0.15821869751E+04  0.62951858503E+04  0.65000000000E+04  0.15050000000E+03 0.  1.
</event>
<event>
 4    1  0.5640637E-004  0.6500000E+04  0.7818608E-02  0.7223770E-01
         52   -1    0    0    0    0  0.00000000000E+00  0.00000000000E+00  0.64930732323E+04  0.65000000000E+04  0.30000000000E+03 0.  1.
        -52   -1    0    0    0    0 -0.00000000000E+00 -0.00000000000E+00 -0.64930732323E+04  0.65000000000E+04  0.30000000000E+03 0.  1.
     100001    1    1    2    0    0  0.47851938817E+03 -0.53929637662E+03  0.64581366015E+04  0.65000000000E+04  0.15050000000E+03 0.  1.
     100001    1    1    2    0    0 -0.47851938817E+03  0.53929637662E+03 -0.64581366015E+04  0.65000000000E+04  0.15050000000E+03 0.  1.
</event>
<event>
 4    1  0.5640637E-004  0.6500000E+04  0.7818608E-02  0.7223770E-01
         52   -1    0    0    0    0  0.00000000000E+00  0.00000000000E+00  0.64930732323E+04  0.65000000000E+04  0.30000000000E+03 0.  1.
        -52   -1    0    0    0    0 -0.00000000000E+00 -0.00000000000E+00 -0.64930732323E+04  0.65000000000E+04  0.30000000000E+03 0. -1.
     100001    1    1    2    0    0  0.38217069911E+04  0.27724743151E+04  0.44648954743E+04  0.65000000000E+04  0.15050000000E+03 0.  1.
     100001    1    1    2    0    0 -0.38217069911E+04 -0.27724743151E+04 -0.44648954743E+04  0.65000000000E+04  0.15050000000E+03 0. -1.
</event>
<event>
 4    1  0.5640637E-004  0.6500000E+04  0.7818608E-02  0.7223770E-01
         52   -1    0    0    0    0  0.00000000000E+00  0.00000000000E+00  0.64930732323E+04  0.65000000000E+04  0.30000000000E+03 0. -1.
        -52   -1    0    0    0    0 -0.00000000000E+00 -0.00000000000E+00 -0.64930732323E+04  0.65000000000E+04  0.30000000000E+03 0.  1.
     100001    1    1    2    0    0  0.24464560796E+03 -0.54889887344E+03 -0.64704102114E+04  0.65000000000E+04  0.15050000000E+03 0.  1.
     100001    1    1    2    0    0 -0.24464560796E+03  0.54889887344E+03  0.64704102114E+04  0.65000000000E+04  0.15050000000E+03 0. -1.
</event>
<event>
 4    1  0.5640637E-004  0.6500000E+04  0.7818608E-02  0.7223770E-01
         52   -1    0    0    0    0  0.00000000000E+00  0.00000000000E+00  0.64930732323E+04  0.65000000000E+04  0.30000000000E+03 0.  1.
        -52   -1    0    0    0    0 -0.00000000000E+00 -0.00000000000E+00 -0.64930732323E+04  0.65000000000E+04  0.30000000000E+03 0. -1.
     100001    1    1    2    0    0 -0.11081906331E+04 -0.36385592770E+04 -0.52687901513E+04  0.65000000000E+04  0.15050000000E+03 0. -1.
     100001    1    1    2    0    0  0.11081906331E+04  0.36385592770E+04  0.52687901513E+04  0.65000000000E+04  0.15050000000E+03 0.  1.
</event>
<event>
 4    1  0.5640637E-004  0.6500000E+04  0.7818608E-02  0.7223770E-01
         52   -1    0    0    0    0  0.00000000000E+00  0.00000000000E+00  0.64930732323E+04  0.65000000000E+04  0.30000000000E+03 0.  1.
        -52   -1    0    0    0    0 -0.00000000000E+00 -0.00000000000E+00 -0.64930732323E+04  0.65000000000E+04  0.30000000000E+03 0. -1.
     100001    1    1    2    0    0  0.35732192275E+03 -0.13669577202E+03 -0.64869858224E+04  0.65000000000E+04  0.15050000000E+03 0. -1.
     100001    1    1    2    0    0 -0.35732192275E+03  0.13669577202E+03  0.64869858224E+04  0.65000000000E+04  0.15050000000E+03 0.  1.
</event>
<event>
 4    1  0.5640637E-004  0.6500000E+04  0.7818608E-02  0.7223770E-01
         52   -1    0    0    0    0  0.00000000000E+00  0.00000000000E+00  0.64930732323E+04  0.65000000000E+04  0.30000000000E+03 0. -1.
        -52   -1    0    0    0    0 -0.00000000000E+00 -0.00000000000E+00 -0.64930732323E+04  0.65000000000E+04  0.30000000000E+03 0.  1.
     100001    1    1    2    0    0 -0.49758836900E+03  0.36703412502E+04  0.53393211808E+04  0.65000000000E+04  0.15050000000E+03 0. -1.
     100001    1    1    2    0    0  0.49758836900E+03 -0.36703412502E+04 -0.53393211808E+04  0.65000000000E+04  0.15050000000E+03 0.  1.
</event>
<event>
 4    1  0.5640637E-004  0.6500000E+04  0.7818608E-02  0.7223770E-01
         52   -1    0    0    0    0  0.00000000000E+00  0.00000000000E+00  0.64930732323E+04  0.65000000000E+04  0.30000000000E+03 0.  1.
        -52   -1    0    0    0    0 -0.00000000000E+00 -0.00000000000E+00 -0.64930732323E+04  0.65000000000E+04  0.30000000000E+03 0. -1.
     100001    1    1    2    0    0  0.21303866774E+03  0.10370226579E+04  0.64114388621E+04  0.65000000000E+04  0.15050000000E+03 0.  1.
     100001    1    1    2    0    0 -0.21303866774E+03 -0.10370226579E+04 -0.64114388621E+04  0.65000000000E+04  0.15050000000E+03 0. -1.
</event>
<event>
 4    1  0.5640637E-004  0.6500000E+04  0.7818608E-02  0.7223770E-01
         52   -1    0    0    0    0  0.00000000000E+00  0.00000000000E+00  0.64930732323E+04  0.65000000000E+04  0.30000000000E+03 0. -1.
        -52   -1    0    0    0    0 -0.00000000000E+00 -0.00000000000E+00 -0.64930732323E+04  0.65000000000E+04  0.30000000000E+03 0.  1.
     100001    1    1    2    0    0  0.15665588372E+03 -0.61249089493E+03 -0.64674309882E+04  0.65000000000E+04  0.15050000000E+03 0.  1.
     100001    1    1    2    0    0 -0.15665588372E+03  0.61249089493E+03  0.64674309882E+04  0.65000000000E+04  0.15050000000E+03 0. -1.
</event>
<event>
 4    1  0.5640637E-004  0.6500000E+04  0.7818608E-02  0.7223770E-01
         52   -1    0    0    0    0  0.00000000000E+00  0.00000000000E+00  0.64930732323E+04  0.65000000000E+04  0.30000000000E+03 0.  1.
        -52   -1    0    0    0    0 -0.00000000000E+00 -0.00000000000E+00 -0.64930732323E+04  0.65000000000E+04  0.30000000000E+03 0. -1.
     100001    1    1    2    0    0 -0.41438550983E+04  0.25486626456E+04  0.43081473272E+04  0.65000000000E+04  0.15050000000E+03 0.  1.
     100001    1    1    2    0    0  0.41438550983E+04 -0.25486626456E+04 -0.43081473272E+04  0.65000000000E+04  0.15050000000E+03 0. -1.
</event>
<event>
 4    1  0.7093215E-004  0.6500000E+04  0.7818608E-02  0.7223770E-01
         52   -1    0    0    0    0  0.00000000000E+00  0.00000000000E+00  0.64930732323E+04  0.65000000000E+04  0.30000000000E+03 0.  1.
        -52   -1    0    0    0    0 -0.00000000000E+00 -0.00000000000E+00 -0.64930732323E+04  0.65000000000E+04  0.30000000000E+03 0.  1.
     100001    1    1    2    0    0  0.13840347593E+03 -0.15801091263E+03  0.64948615674E+04  0.65000000000E+04  0.15050000000E+03 0.  1.
     100001    1    1    2    0    0 -0.13840347593E+03  0.15801091263E+03 -0.64948615674E+04  0.65000000000E+04  0.15050000000E+03 0.  1.
</event>
<event>
 4    1  0.5640637E-004  0.6500000E+04  0.7818608E-02  0.7223770E-01
         52   -1    0    0    0    0  0.00000000000E+00  0.00000000000E+00  0.64930732323E+04  0.65000000000E+04  0.30000000000E+03 0. -1.
        -52   -1    0    0    0    0 -0.00000000000E+00 -0.00000000000E+00 -0.64930732323E+04  0.65000000000E+04  0.30000000000E+03 0.  1.
     100001    1    1    2    0    0  0.37085418677E+04  0.22145526094E+04 -0.48548762813E+04  0.65000000000E+04  0.15050000000E+03 0.  1.
     100001    1    1    2    0    0 -0.37085418677E+04 -0.22145526094E+04  0.48548762813E+04  0.65000000000E+04  0.15050000000E+03 0. -1.
</event>
<event>
 4    1  0.5640637E-004  0.6500000E+04  0.7818608E-02  0.7223770E-01
         52   -1    0    0    0    0  0.00000000000E+00  0.00000000000E+00  0.64930732323E+04  0.65000000000E+04  0.30000000000E+03 0. -1.
        -52   -1    0    0    0    0 -0.00000000000E+00 -0.00000000000E+00 -0.64930732323E+04  0.65000000000E+04  0.30000000000E+03 0.  1.
     100001    1    1    2    0    0  0.41479402537E+04 -0.85590887716E+03  0.49284238247E+04  0.65000000000E+04  0.15050000000E+03 0. -1.
     100001    1    1    2    0    0 -0.41479402537E+04  0.85590887716E+03 -0.49284238247E+04  0.65000000000E+04  0.15050000000E+03 0.  1.
</event>
<event>
 4    1  0.5640637E-004  0.6500000E+04  0.7818608E-02  0.7223770E-01
         52   -1    0    0    0    0  0.00000000000E+00  0.00000000000E+00  0.64930732323E+04  0.65000000000E+04  0.30000000000E+03 0. -1.
        -52   -1    0    0    0    0 -0.00000000000E+00 -0.00000000000E+00 -0.64930732323E+04  0.65000000000E+04  0.30000000000E+03 0.  1.
     100001    1    1    2    0    0  0.11640807572E+04  0.50391988937E+04  0.39343030196E+04  0.65000000000E+04  0.15050000000E+03 0. -1.
     100001    1    1    2    0    0 -0.11640807572E+04 -0.50391988937E+04 -0.39343030196E+04  0.65000000000E+04  0.15050000000E+03 0.  1.
</event>
<event>
 4    1  0.5640637E-004  0.6500000E+04  0.7818608E-02  0.7223770E-01
         52   -1    0    0    0    0  0.00000000000E+00  0.00000000000E+00  0.64930732323E+04  0.65000000000E+04  0.30000000000E+03 0.  1.
        -52   -1    0    0    0    0 -0.00000000000E+00 -0.00000000000E+00 -0.64930732323E+04  0.65000000000E+04  0.30000000000E+03 0. -1.
     100001    1    1    2    0    0  0.45467803067E+04  0.42434899977E+04 -0.18833298257E+04  0.65000000000E+04  0.15050000000E+03 0. -1.
     100001    1    1    2    0    0 -0.45467803067E+04 -0.42434899977E+04  0.18833298257E+04  0.65000000000E+04  0.15050000000E+03 0.  1.
</event>
<event>
 4    1  0.5640637E-004  0.6500000E+04  0.7818608E-02  0.7223770E-01
         52   -1    0    0    0    0  0.00000000000E+00  0.00000000000E+00  0.64930732323E+04  0.65000000000E+04  0.30000000000E+03 0.  1.
        -52   -1    0    0    0    0 -0.00000000000E+00 -0.00000000000E+00 -0.64930732323E+04  0.65000000000E+04  0.30000000000E+03 0. -1.
     100001    1    1    2    0    0 -0.31716803384E+03 -0.64764964164E+04  0.42631954725E+03  0.65000000000E+04  0.15050000000E+03 0. -1.
     100001    1    1    2    0    0  0.31716803384E+03  0.64764964164E+04 -0.42631954725E+03  0.65000000000E+04  0.15050000000E+03 0.  1.
</event>
<event>
 4    1  0.5640637E-004  0.6500000E+04  0.7818608E-02  0.7223770E-01
         52   -1    0    0    0    0  0.00000000000E+00  0.00000000000E+00  0.64930732323E+04  0.65000000000E+04  0.30000000000E+03 0.  1.
        -52   -1    0    0    0    0 -0.00000000000E+00 -0.00000000000E+00 -0.64930732323E+04  0.65000000000E+04  0.30000000000E+03 0. -1.
     100001    1    1    2    0    0  0.55899016695E+03 -0.18056462053E+04 -0.62172760534E+04  0.65000000000E+04  0.15050000000E+03 0. -1.
     100001    1    1    2    0    0 -0.55899016695E+03  0.18056462053E+04  0.62172760534E+04  0.65000000000E+04  0.15050000000E+03 0.  1.
</event>
<event>
 4    1  0.5640637E-004  0.6500000E+04  0.7818608E-02  0.7223770E-01
         52   -1    0    0    0    0  0.00000000000E+00  0.00000000000E+00  0.64930732323E+04  0.65000000000E+04  0.30000000000E+03 0. -1.
        -52   -1    0    0    0    0 -0.00000000000E+00 -0.00000000000E+00 -0.64930732323E+04  0.65000000000E+04  0.30000000000E+03 0.  1.
     100001    1    1    2    0    0 -0.11100719733E+04 -0.66440191513E+03  0.63681755676E+04  0.65000000000E+04  0.15050000000E+03 0. -1.
     100001    1    1    2    0    0  0.11100719733E+04  0.66440191513E+03 -0.63681755676E+04  0.65000000000E+04  0.15050000000E+03 0.  1.
</event>
<event>
 4    1  0.5640637E-004  0.6500000E+04  0.7818608E-02  0.7223770E-01
         52   -1    0    0    0    0  0.00000000000E+00  0.00000000000E+00  0.64930732323E+04  0.65000000000E+04  0.30000000000E+03 0.  1.
        -52   -1    0    0    0    0 -0.00000000000E+00 -0.00000000000E+00 -0.64930732323E+04  0.65000000000E+04  0.30000000000E+03 0. -1.
     100001    1    1    2    0    0 -0.15351985589E+04  0.22609771387E+04 -0.58956337669E+04  0.65000000000E+04  0.15050000000E+03 0. -1.
     100001    1    1    2    0    0  0.15351985589E+04 -0.22609771387E+04  0.58956337669E+04  0.65000000000E+04  0.15050000000E+03 0.  1.
</event>
<event>
 4    1  0.5640637E-004  0.6500000E+04  0.7818608E-02  0.7223770E-01
         52   -1    0    0    0    0  0.00000000000E+00  0.00000000000E+00  0.64930732323E+04  0.65000000000E+04  0.30000000000E+03 0.  1.
        -52   -1    0    0    0    0 -0.00000000000E+00 -0.00000000000E+00 -0.64930732323E+04  0.65000000000E+04  0.30000000000E+03 0.  1.
     100001    1    1    2    0    0 -0.92125494224E+03 -0.14840217559E+04  0.62590988576E+04  0.65000000000E+04  0.15050000000E+03 0.  1.
     100001    1    1    2    0    0  0.92125494224E+03  0.14840217559E+04 -0.62590988576E+04  0.65000000000E+04  0.15050000000E+03 0.  1.
</event>
<event>
 4    1  0.5640637E-004  0.6500000E+04  0.7818608E-02  0.7223770E-01
         52   -1    0    0    0    0  0.00000000000E+00  0.00000000000E+00  0.64930732323E+04  0.65000000000E+04  0.30000000000E+03 0. -1.
        -52   -1    0    0    0    0 -0.00000000000E+00 -0.00000000000E+00 -0.64930732323E+04  0.65000000000E+04  0.30000000000E+03 0.  1.
     100001    1    1    2    0    0 -0.65347508971E+03  0.27008543981E+03 -0.64596728952E+04  0.65000000000E+04  0.15050000000E+03 0.  1.
     100001    1    1    2    0    0  0.65347508971E+03 -0.27008543981E+03  0.64596728952E+04  0.65000000000E+04  0.15050000000E+03 0. -1.
</event>
<event>
 4    1  0.5640637E-004  0.6500000E+04  0.7818608E-02  0.7223770E-01
         52   -1    0    0    0    0  0.00000000000E+00  0.00000000000E+00  0.64930732323E+04  0.65000000000E+04  0.30000000000E+03 0. -1.
        -52   -1    0    0    0    0 -0.00000000000E+00 -0.00000000000E+00 -0.64930732323E+04  0.65000000000E+04  0.30000000000E+03 0.  1.
     100001    1    1    2    0    0 -0.31496957844E+03  0.37855813462E+03 -0.64795707924E+04  0.65000000000E+04  0.15050000000E+03 0.  1.
     100001    1    1    2    0    0  0.31496957844E+03 -0.37855813462E+03  0.64795707924E+04  0.65000000000E+04  0.15050000000E+03 0. -1.
</event>
<event>
 4    1  0.5640637E-004  0.6500000E+04  0.7818608E-02  0.7223770E-01
         52   -1    0    0    0    0  0.00000000000E+00  0.00000000000E+00  0.64930732323E+04  0.65000000000E+04  0.30000000000E+03 0. -1.
        -52   -1    0    0    0    0 -0.00000000000E+00 -0.00000000000E+00 -0.64930732323E+04  0.65000000000E+04  0.30000000000E+03 0.  1.
     100001    1    1    2    0    0  0.10993636997E+04 -0.11804284389E+04  0.62948659959E+04  0.65000000000E+04  0.15050000000E+03 0. -1.
     100001    1    1    2    0    0 -0.10993636997E+04  0.11804284389E+04 -0.62948659959E+04  0.65000000000E+04  0.15050000000E+03 0.  1.
</event>
<event>
 4    1  0.5640637E-004  0.6500000E+04  0.7818608E-02  0.7223770E-01
         52   -1    0    0    0    0  0.00000000000E+00  0.00000000000E+00  0.64930732323E+04  0.65000000000E+04  0.30000000000E+03 0. -1.
        -52   -1    0    0    0    0 -0.00000000000E+00 -0.00000000000E+00 -0.64930732323E+04  0.65000000000E+04  0.30000000000E+03 0.  1.
     100001    1    1    2    0    0 -0.85590384015E+03 -0.48027554314E+03 -0.64237149508E+04  0.65000000000E+04  0.15050000000E+03 0.  1.
     100001    1    1    2    0    0  0.85590384015E+03  0.48027554314E+03  0.64237149508E+04  0.65000000000E+04  0.15050000000E+03 0. -1.
</event>
<event>
 4    1  0.5640637E-004  0.6500000E+04  0.7818608E-02  0.7223770E-01
         52   -1    0    0    0    0  0.00000000000E+00  0.00000000000E+00  0.64930732323E+04  0.65000000000E+04  0.30000000000E+03 0.  1.
        -52   -1    0    0    0    0 -0.00000000000E+00 -0.00000000000E+00 -0.64930732323E+04  0.65000000000E+04  0.30000000000E+03 0. -1.
     100001    1    1    2    0    0  0.53066036286E+04 -0.28479366457E+04 -0.24406074122E+04  0.65000000000E+04  0.15050000000E+03 0. -1.
     100001    1    1    2    0    0 -0.53066036286E+04  0.28479366457E+04  0.24406074122E+04  0.65000000000E+04  0.15050000000E+03 0.  1.
</event>
<event>
 4    1  0.5640637E-004  0.6500000E+04  0.7818608E-02  0.7223770E-01
         52   -1    0    0    0    0  0.00000000000E+00  0.00000000000E+00  0.64930732323E+04  0.65000000000E+04  0.30000000000E+03 0.  1.
        -52   -1    0    0    0    0 -0.00000000000E+00 -0.00000000000E+00 -0.64930732323E+04  0.65000000000E+04  0.30000000000E+03 0. -1.
     100001    1    1    2    0    0 -0.54164808763E+04  0.16393593652E+04 -0.31939921005E+04  0.65000000000E+04  0.15050000000E+03 0. -1.
     100001    1    1    2    0    0  0.54164808763E+04 -0.16393593652E+04  0.31939921005E+04  0.65000000000E+04  0.15050000000E+03 0.  1.
</event>
<event>
 4    1  0.5640637E-004  0.6500000E+04  0.7818608E-02  0.7223770E-01
         52   -1    0    0    0    0  0.00000000000E+00  0.00000000000E+00  0.64930732323E+04  0.65000000000E+04  0.30000000000E+03 0. -1.
        -52   -1    0    0    0    0 -0.00000000000E+00 -0.00000000000E+00 -0.64930732323E+04  0.65000000000E+04  0.30000000000E+03 0.  1.
     100001    1    1    2    0    0  0.31358651258E+04  0.13840370597E+04  0.55207011403E+04  0.65000000000E+04  0.15050000000E+03 0. -1.
     100001    1    1    2    0    0 -0.31358651258E+04 -0.13840370597E+04 -0.55207011403E+04  0.65000000000E+04  0.15050000000E+03 0.  1.
</event>
<event>
 4    1  0.5640637E-004  0.6500000E+04  0.7818608E-02  0.7223770E-01
         52   -1    0    0    0    0  0.00000000000E+00  0.00000000000E+00  0.64930732323E+04  0.65000000000E+04  0.30000000000E+03 0. -1.
        -52   -1    0    0    0    0 -0.00000000000E+00 -0.00000000000E+00 -0.64930732323E+04  0.65000000000E+04  0.30000000000E+03 0.  1.
     100001    1    1    2    0    0 -0.27606835584E+03  0.12380046136E+03  0.64912101690E+04  0.65000000000E+04  0.15050000000E+03 0. -1.
     100001    1    1    2    0    0  0.27606835584E+03 -0.12380046136E+03 -0.64912101690E+04  0.65000000000E+04  0.15050000000E+03 0.  1.
</event>
<event>
 4    1  0.5640637E-004  0.6500000E+04  0.7818608E-02  0.7223770E-01
         52   -1    0    0    0    0  0.00000000000E+00  0.00000000000E+00  0.64930732323E+04  0.65000000000E+04  0.30000000000E+03 0. -1.
        -52   -1    0    0    0    0 -0.00000000000E+00 -0.00000000000E+00 -0.64930732323E+04  0.65000000000E+04  0.30000000000E+03 0.  1.
     100001    1    1    2    0    0 -0.34817155049E+02 -0.64250317072E+04  0.97216514891E+03  0.65000000000E+04  0.15050000000E+03 0. -1.
     100001    1    1    2    0    0  0.34817155049E+02  0.64250317072E+04 -0.97216514891E+03  0.65000000000E+04  0.15050000000E+03 0.  1.
</event>
<event>
 4    1  0.5640637E-004  0.6500000E+04  0.7818608E-02  0.7223770E-01
         52   -1    0    0    0    0  0.00000000000E+00  0.00000000000E+00  0.64930732323E+04  0.65000000000E+04  0.30000000000E+03 0. -1.
        -52   -1    0    0    0    0 -0.00000000000E+00 -0.00000000000E+00 -0.64930732323E+04  0.65000000000E+04  0.30000000000E+03 0.  1.
     100001    1    1    2    0    0 -0.42775339898E+04 -0.27299992778E+04  0.40592064075E+04  0.65000000000E+04  0.15050000000E+03 0. -1.
     100001    1    1    2    0    0  0.42775339898E+04  0.27299992778E+04 -0.40592064075E+04  0.65000000000E+04  0.15050000000E+03 0.  1.
</event>
<event>
 4    1  0.6433930E-004  0.6500000E+04  0.7818608E-02  0.7223770E-01
         52   -1    0    0    0    0  0.00000000000E+00  0.00000000000E+00  0.64930732323E+04  0.65000000000E+04  0.30000000000E+03 0.  1.
        -52   -1    0    0    0    0 -0.00000000000E+00 -0.00000000000E+00 -0.64930732323E+04  0.65000000000E+04  0.30000000000E+03 0.  1.
     100001    1    1    2    0    0  0.21507308665E+03  0.74756662357E+02 -0.64942670686E+04  0.65000000000E+04  0.15050000000E+03 0.  1.
     100001    1    1    2    0    0 -0.21507308665E+03 -0.74756662357E+02  0.64942670686E+04  0.65000000000E+04  0.15050000000E+03 0.  1.
</event>
<event>
 4    1  0.5640637E-004  0.6500000E+04  0.7818608E-02  0.7223770E-01
         52   -1    0    0    0    0  0.00000000000E+00  0.00000000000E+00  0.64930732323E+04  0.65000000000E+04  0.30000000000E+03 0. -1.
        -52   -1    0    0    0    0 -0.00000000000E+00 -0.00000000000E+00 -0.64930732323E+04  0.65000000000E+04  0.30000000000E+03 0.  1.
     100001    1    1    2    0    0 -0.10253117606E+04 -0.62477728241E+03  0.63863713399E+04  0.65000000000E+04  0.15050000000E+03 0. -1.
     100001    1    1    2    0    0  0.10253117606E+04  0.62477728241E+03 -0.63863713399E+04  0.65000000000E+04  0.15050000000E+03 0.  1.
</event>
<event>
 4    1  0.5640637E-004  0.6500000E+04  0.7818608E-02  0.7223770E-01
         52   -1    0    0    0    0  0.00000000000E+00  0.00000000000E+00  0.64930732323E+04  0.65000000000E+04  0.30000000000E+03 0. -1.
        -52   -1    0    0    0    0 -0.00000000000E+00 -0.00000000000E+00 -0.64930732323E+04  0.65000000000E+04  0.30000000000E+03 0.  1.
     100001    1    1    2    0    0  0.38606855193E+04  0.45294409445E+04  0.26089503257E+04  0.65000000000E+04  0.15050000000E+03 0. -1.
     100001    1    1    2    0    0 -0.38606855193E+04 -0.45294409445E+04 -0.26089503257E+04  0.65000000000E+04  0.15050000000E+03 0.  1.
</event>
<event>
 4    1  0.5640637E-004  0.6500000E+04  0.7818608E-02  0.7223770E-01
         52   -1    0    0    0    0  0.00000000000E+00  0.00000000000E+00  0.64930732323E+04  0.65000000000E+04  0.30000000000E+03 0.  1.
        -52   -1    0    0    0    0 -0.00000000000E+00 -0.00000000000E+00 -0.64930732323E+04  0.65000000000E+04  0.30000000000E+03 0. -1.
     100001    1    1    2    0    0 -0.17777761057E+03 -0.61101237195E+03 -0.64670247218E+04  0.65000000000E+04  0.15050000000E+03 0. -1.
     100001    1    1    2    0    0  0.17777761057E+03  0.61101237195E+03  0.64670247218E+04  0.65000000000E+04  0.15050000000E+03 0.  1.
</event>
<event>
 4    1  0.5640637E-004  0.6500000E+04  0.7818608E-02  0.7223770E-01
         52   -1    0    0    0    0  0.00000000000E+00  0.00000000000E+00  0.64930732323E+04  0.65000000000E+04  0.30000000000E+03 0. -1.
        -52   -1    0    0    0    0 -0.00000000000E+00 -0.00000000000E+00 -0.64930732323E+04  0.65000000000E+04  0.30000000000E+03 0.  1.
     100001    1    1    2    0    0 -0.10738730938E+04 -0.64717463832E+03  0.63761517639E+04  0.65000000000E+04  0.15050000000E+03 0. -1.
     100001    1    1    2    0    0  0.10738730938E+04  0.64717463832E+03 -0.63761517639E+04  0.65000000000E+04  0.15050000000E+03 0.  1.
</event>
<event>
 4    1  0.5640637E-004  0.6500000E+04  0.7818608E-02  0.7223770E-01
         52   -1    0    0    0    0  0.00000000000E+00  0.00000000000E+00  0.64930732323E+04  0.65000000000E+04  0.30000000000E+03 0.  1.
        -52   -1    0    0    0    0 -0.00000000000E+00 -0.00000000000E+00 -0.64930732323E+04  0.65000000000E+04  0.30000000000E+03 0. -1.
     100001    1    1    2    0    0 -0.30741339130E+04  0.26595151250E+04 -0.50699141743E+04  0.65000000000E+04  0.15050000000E+03 0. -1.
     100001    1    1    2    0    0  0.30741339130E+04 -0.26595151250E+04  0.50699141743E+04  0.65000000000E+04  0.15050000000E+03 0.  1.
</event>
<event>
 4    1  0.5640637E-004  0.6500000E+04  0.7818608E-02  0.7223770E-01
         52   -1    0    0    0    0  0.00000000000E+00  0.00000000000E+00  0.64930732323E+04  0.65000000000E+04  0.30000000000E+03 0.  1.
        -52   -1    0    0    0    0 -0.00000000000E+00 -0.00000000000E+00 -0.64930732323E+04  0.65000000000E+04  0.30000000000E+03 0. -1.
     100001    1    1    2    0    0  0.10255405181E+04  0.94073915140E+03 -0.63474897593E+04  0.65000000000E+04  0.15050000000E+03 0. -1.
     100001    1    1    2    0    0 -0.10255405181E+04 -0.94073915140E+03  0.63474897593E+04  0.65000000000E+04  0.15050000000E+03 0.  1.
</event>
<event>
 4    1  0.5640637E-004  0.6500000E+04  0.7818608E-02  0.7223770E-01
         52   -1    0    0    0    0  0.00000000000E+00  0.00000000000E+00  0.64930732323E+04  0.65000000000E+04  0.30000000000E+03 0.  1.
        -52   -1    0    0    0    0 -0.00000000000E+00 -0.00000000000E+00 -0.64930732323E+04  0.65000000000E+04  0.30000000000E+03 0. -1.
     100001    1    1    2    0    0 -0.85455745402E+03 -0.53749465431E+03 -0.64193598438E+04  0.65000000000E+04  0.15050000000E+03 0. -1.
     100001    1    1    2    0    0  0.85455745402E+03  0.53749465431E+03  0.64193598438E+04  0.65000000000E+04  0.15050000000E+03 0.  1.
</event>
<event>
 4    1  0.6968122E-004  0.6500000E+04  0.7818608E-02  0.7223770E-01
         52   -1    0    0    0    0  0.00000000000E+00  0.00000000000E+00  0.64930732323E+04  0.65000000000E+04  0.30000000000E+03 0.  1.
        -52   -1    0    0    0    0 -0.00000000000E+00 -0.00000000000E+00 -0.64930732323E+04  0.65000000000E+04  0.30000000000E+03 0.  1.
     100001    1    1    2    0    0  0.11321002984E+03  0.46073080614E+02  0.64971078574E+04  0.65000000000E+04  0.15050000000E+03 0.  1.
     100001    1    1    2    0    0 -0.11321002984E+03 -0.46073080614E+02 -0.64971078574E+04  0.65000000000E+04  0.15050000000E+03 0.  1.
</event>
<event>
 4    1  0.5640637E-004  0.6500000E+04  0.7818608E-02  0.7223770E-01
         52   -1    0    0    0    0  0.00000000000E+00  0.00000000000E+00  0.64930732323E+04  0.65000000000E+04  0.30000000000E+03 0.  1.
        -52   -1    0    0    0    0 -0.00000000000E+00 -0.00000000000E+00 -0.64930732323E+04  0.65000000000E+04  0.30000000000E+03 0. -1.
     100001    1    1    2    0    0 -0.32071047910E+04 -0.33492657527E+04 -0.45523892109E+04  0.65000000000E+04  0.15050000000E+03 0. -1.
     100001    1    1    2    0    0  0.32071047910E+04  0.33492657527E+04  0.45523892109E+04  0.65000000000E+04  0.15050000000E+03 0.  1.
</event>
<event>
 4    1  0.5640637E-004  0.6500000E+04  0.7818608E-02  0.7223770E-01
         52   -1    0    0    0    0  0.00000000000E+00  0.00000000000E+00  0.64930732323E+04  0.65000000000E+04  0.30000000000E+03 0.  1.
        -52   -1    0    0    0    0 -0.00000000000E+00 -0.00000000000E+00 -0.64930732323E+04  0.65000000000E+04  0.30000000000E+03 0.  1.
     100001    1    1    2    0    0 -0.38638694460E+02  0.81505747554E+03 -0.64468238779E+04  0.65000000000E+04  0.15050000000E+03 0.  1.
     100001    1    1    2    0    0  0.38638694460E+02 -0.81505747554E+03  0.64468238779E+04  0.65000000000E+04  0.15050000000E+03 0.  1.
</event>
<event>
 4    1  0.6380713E-004  0.6500000E+04  0.7818608E-02  0.7223770E-01
         52   -1    0    0    0    0  0.00000000000E+00  0.00000000000E+00  0.64930732323E+04  0.65000000000E+04  0.30000000000E+03 0. -1.
        -52   -1    0    0    0    0 -0.00000000000E+00 -0.00000000000E+00 -0.64930732323E+04  0.65000000000E+04  0.30000000000E+03 0. -1.
     100001    1    1    2    0    0  0.45210940789E+02 -0.22583104279E+03  0.64941747791E+04  0.65000000000E+04  0.15050000000E+03 0. -1.
     100001    1    1    2    0    0 -0.45210940789E+02  0.22583104279E+03 -0.64941747791E+04  0.65000000000E+04  0.15050000000E+03 0. -1.
</event>
<event>
 4    1  0.5640637E-004  0.6500000E+04  0.7818608E-02  0.7223770E-01
         52   -1    0    0    0    0  0.00000000000E+00  0.00000000000E+00  0.64930732323E+04  0.65000000000E+04  0.30000000000E+03 0. -1.
        -52   -1    0    0    0    0 -0.00000000000E+00 -0.00000000000E+00 -0.64930732323E+04  0.65000000000E+04  0.30000000000E+03 0.  1.
     100001    1    1    2    0    0 -0.19582100212E+03  0.12811141204E+04  0.63677115588E+04  0.65000000000E+04  0.15050000000E+03 0. -1.
     100001    1    1    2    0    0  0.19582100212E+03 -0.12811141204E+04 -0.63677115588E+04  0.65000000000E+04  0.15050000000E+03 0.  1.
</event>
<event>
 4    1  0.5640637E-004  0.6500000E+04  0.7818608E-02  0.7223770E-01
         52   -1    0    0    0    0  0.00000000000E+00  0.00000000000E+00  0.64930732323E+04  0.65000000000E+04  0.30000000000E+03 0.  1.
        -52   -1    0    0    0    0 -0.00000000000E+00 -0.00000000000E+00 -0.64930732323E+04  0.65000000000E+04  0.30000000000E+03 0. -1.
     100001    1    1    2    0    0  0.36364903708E+04  0.51851753844E+04 -0.14550751754E+04  0.65000000000E+04  0.15050000000E+03 0. -1.
     100001    1    1    2    0    0 -0.36364903708E+04 -0.51851753844E+04  0.14550751754E+04  0.65000000000E+04  0.15050000000E+03 0.  1.
</event>
<event>
 4    1  0.5640637E-004  0.6500000E+04  0.7818608E-02  0.7223770E-01
         52   -1    0    0    0    0  0.00000000000E+00  0.00000000000E+00  0.64930732323E+04  0.65000000000E+04  0.30000000000E+03 0.  1.
        -52   -1    0    0    0    0 -0.00000000000E+00 -0.00000000000E+00 -0.64930732323E+04  0.65000000000E+04  0.30000000000E+03 0. -1.
     100001    1    1    2    0    0 -0.59510088116E+03 -0.88936573234E+03  0.64095423616E+04  0.65000000000E+04  0.15050000000E+03 0.  1.
     100001    1    1    2    0    0  0.59510088116E+03  0.88936573234E+03 -0.64095423616E+04  0.65000000000E+04  0.15050000000E+03 0. -1.
</event>
<event>
 4    1  0.5640637E-004  0.6500000E+04  0.7818608E-02  0.7223770E-01
         52   -1    0    0    0    0  0.00000000000E+00  0.00000000000E+00  0.64930732323E+04  0.65000000000E+04  0.30000000000E+03 0. -1.
        -52   -1    0    0    0    0 -0.00000000000E+00 -0.00000000000E+00 -0.64930732323E+04  0.65000000000E+04  0.30000000000E+03 0.  1.
     100001    1    1    2    0    0  0.71408978513E+03 -0.10217685261E+04  0.63775712154E+04  0.65000000000E+04  0.15050000000E+03 0. -1.
     100001    1    1    2    0    0 -0.71408978513E+03  0.10217685261E+04 -0.63775712154E+04  0.65000000000E+04  0.15050000000E+03 0.  1.
</event>
<event>
 4    1  0.5640637E-004  0.6500000E+04  0.7818608E-02  0.7223770E-01
         52   -1    0    0    0    0  0.00000000000E+00  0.00000000000E+00  0.64930732323E+04  0.65000000000E+04  0.30000000000E+03 0. -1.
        -52   -1    0    0    0    0 -0.00000000000E+00 -0.00000000000E+00 -0.64930732323E+04  0.65000000000E+04  0.30000000000E+03 0.  1.
     100001    1    1    2    0    0 -0.35482118810E+04  0.37222757411E+04 -0.39726824067E+04  0.65000000000E+04  0.15050000000E+03 0.  1.
     100001    1    1    2    0    0  0.35482118810E+04 -0.37222757411E+04  0.39726824067E+04  0.65000000000E+04  0.15050000000E+03 0. -1.
</event>
<event>
 4    1  0.8032009E-004  0.6500000E+04  0.7818608E-02  0.7223770E-01
         52   -1    0    0    0    0  0.00000000000E+00  0.00000000000E+00  0.64930732323E+04  0.65000000000E+04  0.30000000000E+03 0. -1.
        -52   -1    0    0    0    0 -0.00000000000E+00 -0.00000000000E+00 -0.64930732323E+04  0.65000000000E+04  0.30000000000E+03 0. -1.
     100001    1    1    2    0    0  0.15357060847E+03 -0.53545663707E+02  0.64962218774E+04  0.65000000000E+04  0.15050000000E+03 0. -1.
     100001    1    1    2    0    0 -0.15357060847E+03  0.53545663707E+02 -0.64962218774E+04  0.65000000000E+04  0.15050000000E+03 0. -1.
</event>
<event>
 4    1  0.5640637E-004  0.6500000E+04  0.7818608E-02  0.7223770E-01
         52   -1    0    0    0    0  0.00000000000E+00  0.00000000000E+00  0.64930732323E+04  0.65000000000E+04  0.30000000000E+03 0.  1.
        -52   -1    0    0    0    0 -0.00000000000E+00 -0.00000000000E+00 -0.64930732323E+04  0.65000000000E+04  0.30000000000E+03 0.  1.
     100001    1    1    2    0    0  0.25648178898E+03  0.26182559822E+03 -0.64879129308E+04  0.65000000000E+04  0.15050000000E+03 0.  1.
     100001    1    1    2    0    0 -0.25648178898E+03 -0.26182559822E+03  0.64879129308E+04  0.65000000000E+04  0.15050000000E+03 0.  1.
</event>
<event>
 4    1  0.5640637E-004  0.6500000E+04  0.7818608E-02  0.7223770E-01
         52   -1    0    0    0    0  0.00000000000E+00  0.00000000000E+00  0.64930732323E+04  0.65000000000E+04  0.30000000000E+03 0.  1.
        -52   -1    0    0    0    0 -0.00000000000E+00 -0.00000000000E+00 -0.64930732323E+04  0.65000000000E+04  0.30000000000E+03 0. -1.
     100001    1    1    2    0    0 -0.93585703521E+03  0.49373014595E+04 -0.41200213176E+04  0.65000000000E+04  0.15050000000E+03 0. -1.
     100001    1    1    2    0    0  0.93585703521E+03 -0.49373014595E+04  0.41200213176E+04  0.65000000000E+04  0.15050000000E+03 0.  1.
</event>
<event>
 4    1  0.5640637E-004  0.6500000E+04  0.7818608E-02  0.7223770E-01
         52   -1    0    0    0    0  0.00000000000E+00  0.00000000000E+00  0.64930732323E+04  0.65000000000E+04  0.30000000000E+03 0.  1.
        -52   -1    0    0    0    0 -0.00000000000E+00 -0.00000000000E+00 -0.64930732323E+04  0.65000000000E+04  0.30000000000E+03 0. -1.
     100001    1    1    2    0    0 -0.15371521473E+04  0.36139852034E+04  0.51772216464E+04  0.65000000000E+04  0.15050000000E+03 0.  1.
     100001    1    1    2    0    0  0.15371521473E+04 -0.36139852034E+04 -0.51772216464E+04  0.65000000000E+04  0.15050000000E+03 0. -1.
</event>
<event>
 4    1  0.5640637E-004  0.6500000E+04  0.7818608E-02  0.7223770E-01
         52   -1    0    0    0    0  0.00000000000E+00  0.00000000000E+00  0.64930732323E+04  0.65000000000E+04  0.30000000000E+03 0.  1.
        -52   -1    0    0    0    0 -0.00000000000E+00 -0.00000000000E+00 -0.64930732323E+04  0.65000000000E+04  0.30000000000E+03 0. -1.
     100001    1    1    2    0    0 -0.12567955495E+03 -0.13226747225E+04  0.63609815263E+04  0.65000000000E+04  0.15050000000E+03 0.  1.
     100001    1    1    2    0    0  0.12567955495E+03  0.13226747225E+04 -0.63609815263E+04  0.65000000000E+04  0.15050000000E+03 0. -1.
</event>
<event>
 4    1  0.5640637E-004  0.6500000E+04  0.7818608E-02  0.7223770E-01
         52   -1    0    0    0    0  0.00000000000E+00  0.00000000000E+00  0.64930732323E+04  0.65000000000E+04  0.30000000000E+03 0. -1.
        -52   -1    0    0    0    0 -0.00000000000E+00 -0.00000000000E+00 -0.64930732323E+04  0.65000000000E+04  0.30000000000E+03 0.  1.
     100001    1    1    2    0    0 -0.13394949775E+04  0.39994686307E+03  0.63461126260E+04  0.65000000000E+04  0.15050000000E+03 0. -1.
     100001    1    1    2    0    0  0.13394949775E+04 -0.39994686307E+03 -0.63461126260E+04  0.65000000000E+04  0.15050000000E+03 0.  1.
</event>
<event>
 4    1  0.5640637E-004  0.6500000E+04  0.7818608E-02  0.7223770E-01
         52   -1    0    0    0    0  0.00000000000E+00  0.00000000000E+00  0.64930732323E+04  0.65000000000E+04  0.30000000000E+03 0.  1.
        -52   -1    0    0    0    0 -0.00000000000E+00 -0.00000000000E+00 -0.64930732323E+04  0.65000000000E+04  0.30000000000E+03 0. -1.
     100001    1    1    2    0    0  0.95679327385E+02  0.64898255064E+04  0.31679664211E+03  0.65000000000E+04  0.15050000000E+03 0. -1.
     100001    1    1    2    0    0 -0.95679327385E+02 -0.64898255064E+04 -0.31679664211E+03  0.65000000000E+04  0.15050000000E+03 0.  1.
</event>
<event>
 4    1  0.5640637E-004  0.6500000E+04  0.7818608E-02  0.7223770E-01
         52   -1    0    0    0    0  0.00000000000E+00  0.00000000000E+00  0.64930732323E+04  0.65000000000E+04  0.30000000000E+03 0.  1.
        -52   -1    0    0    0    0 -0.00000000000E+00 -0.00000000000E+00 -0.64930732323E+04  0.65000000000E+04  0.30000000000E+03 0. -1.
     100001    1    1    2    0    0  0.75063470614E+03 -0.70115685605E+03 -0.64165626586E+04  0.65000000000E+04  0.15050000000E+03 0. -1.
     100001    1    1    2    0    0 -0.75063470614E+03  0.70115685605E+03  0.64165626586E+04  0.65000000000E+04  0.15050000000E+03 0.  1.
</event>
<event>
 4    1  0.5640637E-004  0.6500000E+04  0.7818608E-02  0.7223770E-01
         52   -1    0    0    0    0  0.00000000000E+00  0.00000000000E+00  0.64930732323E+04  0.65000000000E+04  0.30000000000E+03 0. -1.
        -52   -1    0    0    0    0 -0.00000000000E+00 -0.00000000000E+00 -0.64930732323E+04  0.65000000000E+04  0.30000000000E+03 0. -1.
     100001    1    1    2    0    0  0.49979856295E+02  0.13218932031E+02  0.64980517868E+04  0.65000000000E+04  0.15050000000E+03 0. -1.
     100001    1    1    2    0    0 -0.49979856295E+02 -0.13218932031E+02 -0.64980517868E+04  0.65000000000E+04  0.15050000000E+03 0. -1.
</event>
<event>
 4    1  0.5640637E-004  0.6500000E+04  0.7818608E-02  0.7223770E-01
         52   -1    0    0    0    0  0.00000000000E+00  0.00000000000E+00  0.64930732323E+04  0.65000000000E+04  0.30000000000E+03 0. -1.
        -52   -1    0    0    0    0 -0.00000000000E+00 -0.00000000000E+00 -0.64930732323E+04  0.65000000000E+04  0.30000000000E+03 0.  1.
     100001    1    1    2    0    0  0.32293222028E+04 -0.32817498892E+04 -0.45857328232E+04  0.65000000000E+04  0.15050000000E+03 0.  1.
     100001    1    1    2    0    0 -0.32293222028E+04  0.32817498892E+04  0.45857328232E+04  0.65000000000E+04  0.15050000000E+03 0. -1.
</event>
<event>
 4    1  0.5640637E-004  0.6500000E+04  0.7818608E-02  0.7223770E-01
         52   -1    0    0    0    0  0.00000000000E+00  0.00000000000E+00  0.64930732323E+04  0.65000000000E+04  0.30000000000E+03 0. -1.
        -52   -1    0    0    0    0 -0.00000000000E+00 -0.00000000000E+00 -0.64930732323E+04  0.65000000000E+04  0.30000000000E+03 0.  1.
     100001    1    1    2    0    0 -0.32472579486E+03  0.41835662770E+02 -0.64900040590E+04  0.65000000000E+04  0.15050000000E+03 0.  1.
     100001    1    1    2    0    0  0.32472579486E+03 -0.41835662770E+02  0.64900040590E+04  0.65000000000E+04  0.15050000000E+03 0. -1.
</event>
<event>
 4    1  0.5640637E-004  0.6500000E+04  0.7818608E-02  0.7223770E-01
         52   -1    0    0    0    0  0.00000000000E+00  0.00000000000E+00  0.64930732323E+04  0.65000000000E+04  0.30000000000E+03 0.  1.
        -52   -1    0    0    0    0 -0.00000000000E+00 -0.00000000000E+00 -0.64930732323E+04  0.65000000000E+04  0.30000000000E+03 0. -1.
     100001    1    1    2    0    0  0.10572970447E+04  0.28511610919E+04 -0.57428523520E+04  0.65000000000E+04  0.15050000000E+03 0. -1.
     100001    1    1    2    0    0 -0.10572970447E+04 -0.28511610919E+04  0.57428523520E+04  0.65000000000E+04  0.15050000000E+03 0.  1.
</event>
<event>
 4    1  0.5640637E-004  0.6500000E+04  0.7818608E-02  0.7223770E-01
         52   -1    0    0    0    0  0.00000000000E+00  0.00000000000E+00  0.64930732323E+04  0.65000000000E+04  0.30000000000E+03 0. -1.
        -52   -1    0    0    0    0 -0.00000000000E+00 -0.00000000000E+00 -0.64930732323E+04  0.65000000000E+04  0.30000000000E+03 0.  1.
     100001    1    1    2    0    0 -0.27060650154E+03 -0.63759256986E+04  0.12254359866E+04  0.65000000000E+04  0.15050000000E+03 0. -1.
     100001    1    1    2    0    0  0.27060650154E+03  0.63759256986E+04 -0.12254359866E+04  0.65000000000E+04  0.15050000000E+03 0.  1.
</event>
<event>
 4    1  0.5640637E-004  0.6500000E+04  0.7818608E-02  0.7223770E-01
         52   -1    0    0    0    0  0.00000000000E+00  0.00000000000E+00  0.64930732323E+04  0.65000000000E+04  0.30000000000E+03 0.  1.
        -52   -1    0    0    0    0 -0.00000000000E+00 -0.00000000000E+00 -0.64930732323E+04  0.65000000000E+04  0.30000000000E+03 0. -1.
     100001    1    1    2    0    0 -0.50356132402E+03  0.65627074609E+03  0.64453924978E+04  0.65000000000E+04  0.15050000000E+03 0.  1.
     100001    1    1    2    0    0  0.50356132402E+03 -0.65627074609E+03 -0.64453924978E+04  0.65000000000E+04  0.15050000000E+03 0. -1.
</event>
<event>
 4    1  0.5640637E-004  0.6500000E+04  0.7818608E-02  0.7223770E-01
         52   -1    0    0    0    0  0.00000000000E+00  0.00000000000E+00  0.64930732323E+04  0.65000000000E+04  0.30000000000E+03 0. -1.
        -52   -1    0    0    0    0 -0.00000000000E+00 -0.00000000000E+00 -0.64930732323E+04  0.65000000000E+04  0.30000000000E+03 0. -1.
     100001    1    1    2    0    0  0.31082889440E+03 -0.14168297707E+03  0.64892727699E+04  0.65000000000E+04  0.15050000000E+03 0. -1.
     100001    1    1    2    0    0 -0.31082889440E+03  0.14168297707E+03 -0.64892727699E+04  0.65000000000E+04  0.15050000000E+03 0. -1.
</event>
<event>
 4    1  0.5640637E-004  0.6500000E+04  0.7818608E-02  0.7223770E-01
         52   -1    0    0    0    0  0.00000000000E+00  0.00000000000E+00  0.64930732323E+04  0.65000000000E+04  0.30000000000E+03 0.  1.
        -52   -1    0    0    0    0 -0.00000000000E+00 -0.00000000000E+00 -0.64930732323E+04  0.65000000000E+04  0.30000000000E+03 0. -1.
     100001    1    1    2    0    0  0.43803230793E+03  0.27956932443E+03 -0.64774469075E+04  0.65000000000E+04  0.15050000000E+03 0. -1.
     100001    1    1    2    0    0 -0.43803230793E+03 -0.27956932443E+03  0.64774469075E+04  0.65000000000E+04  0.15050000000E+03 0.  1.
</event>
<event>
 4    1  0.5640637E-004  0.6500000E+04  0.7818608E-02  0.7223770E-01
         52   -1    0    0    0    0  0.00000000000E+00  0.00000000000E+00  0.64930732323E+04  0.65000000000E+04  0.30000000000E+03 0.  1.
        -52   -1    0    0    0    0 -0.00000000000E+00 -0.00000000000E+00 -0.64930732323E+04  0.65000000000E+04  0.30000000000E+03 0. -1.
     100001    1    1    2    0    0 -0.13200060428E+04 -0.34915969730E+03  0.63531898526E+04  0.65000000000E+04  0.15050000000E+03 0.  1.
     100001    1    1    2    0    0  0.13200060428E+04  0.34915969730E+03 -0.63531898526E+04  0.65000000000E+04  0.15050000000E+03 0. -1.
</event>
<event>
 4    1  0.5640637E-004  0.6500000E+04  0.7818608E-02  0.7223770E-01
         52   -1    0    0    0    0  0.00000000000E+00  0.00000000000E+00  0.64930732323E+04  0.65000000000E+04  0.30000000000E+03 0. -1.
        -52   -1    0    0    0    0 -0.00000000000E+00 -0.00000000000E+00 -0.64930732323E+04  0.65000000000E+04  0.30000000000E+03 0.  1.
     100001    1    1    2    0    0 -0.12000607357E+04 -0.20503149293E+04  0.60484223291E+04  0.65000000000E+04  0.15050000000E+03 0. -1.
     100001    1    1    2    0    0  0.12000607357E+04  0.20503149293E+04 -0.60484223291E+04  0.65000000000E+04  0.15050000000E+03 0.  1.
</event>
<event>
 4    1  0.5640637E-004  0.6500000E+04  0.7818608E-02  0.7223770E-01
         52   -1    0    0    0    0  0.00000000000E+00  0.00000000000E+00  0.64930732323E+04  0.65000000000E+04  0.30000000000E+03 0.  1.
        -52   -1    0    0    0    0 -0.00000000000E+00 -0.00000000000E+00 -0.64930732323E+04  0.65000000000E+04  0.30000000000E+03 0. -1.
     100001    1    1    2    0    0 -0.77661811336E+03  0.33863746178E+03 -0.64427896695E+04  0.65000000000E+04  0.15050000000E+03 0. -1.
     100001    1    1    2    0    0  0.77661811336E+03 -0.33863746178E+03  0.64427896695E+04  0.65000000000E+04  0.15050000000E+03 0.  1.
</event>
<event>
 4    1  0.5640637E-004  0.6500000E+04  0.7818608E-02  0.7223770E-01
         52   -1    0    0    0    0  0.00000000000E+00  0.00000000000E+00  0.64930732323E+04  0.65000000000E+04  0.30000000000E+03 0.  1.
        -52   -1    0    0    0    0 -0.00000000000E+00 -0.00000000000E+00 -0.64930732323E+04  0.65000000000E+04  0.30000000000E+03 0. -1.
     100001    1    1    2    0    0 -0.61305314849E+03 -0.63139457205E+02 -0.64689666096E+04  0.65000000000E+04  0.15050000000E+03 0. -1.
     100001    1    1    2    0    0  0.61305314849E+03  0.63139457205E+02  0.64689666096E+04  0.65000000000E+04  0.15050000000E+03 0.  1.
</event>
<event>
 4    1  0.5640637E-004  0.6500000E+04  0.7818608E-02  0.7223770E-01
         52   -1    0    0    0    0  0.00000000000E+00  0.00000000000E+00  0.64930732323E+04  0.65000000000E+04  0.30000000000E+03 0.  1.
        -52   -1    0    0    0    0 -0.00000000000E+00 -0.00000000000E+00 -0.64930732323E+04  0.65000000000E+04  0.30000000000E+03 0. -1.
     100001    1    1    2    0    0 -0.86480111854E+02 -0.20162936185E+03 -0.64945528361E+04  0.65000000000E+04  0.15050000000E+03 0. -1.
     100001    1    1    2    0    0  0.86480111854E+02  0.20162936185E+03  0.64945528361E+04  0.65000000000E+04  0.15050000000E+03 0.  1.
</event>
<event>
 4    1  0.5640637E-004  0.6500000E+04  0.7818608E-02  0.7223770E-01
         52   -1    0    0    0    0  0.00000000000E+00  0.00000000000E+00  0.64930732323E+04  0.65000000000E+04  0.30000000000E+03 0. -1.
        -52   -1    0    0    0    0 -0.00000000000E+00 -0.00000000000E+00 -0.64930732323E+04  0.65000000000E+04  0.30000000000E+03 0.  1.
     100001    1    1    2    0    0  0.43489987752E+04 -0.20338461251E+04 -0.43791585199E+04  0.65000000000E+04  0.15050000000E+03 0.  1.
     100001    1    1    2    0    0 -0.43489987752E+04  0.20338461251E+04  0.43791585199E+04  0.65000000000E+04  0.15050000000E+03 0. -1.
</event>
<event>
 4    1  0.5640637E-004  0.6500000E+04  0.7818608E-02  0.7223770E-01
         52   -1    0    0    0    0  0.00000000000E+00  0.00000000000E+00  0.64930732323E+04  0.65000000000E+04  0.30000000000E+03 0. -1.
        -52   -1    0    0    0    0 -0.00000000000E+00 -0.00000000000E+00 -0.64930732323E+04  0.65000000000E+04  0.30000000000E+03 0.  1.
     100001    1    1    2    0    0 -0.77942890415E+03  0.10168610653E+04  0.63707012100E+04  0.65000000000E+04  0.15050000000E+03 0. -1.
     100001    1    1    2    0    0  0.77942890415E+03 -0.10168610653E+04 -0.63707012100E+04  0.65000000000E+04  0.15050000000E+03 0.  1.
</event>
<event>
 4    1  0.5640637E-004  0.6500000E+04  0.7818608E-02  0.7223770E-01
         52   -1    0    0    0    0  0.00000000000E+00  0.00000000000E+00  0.64930732323E+04  0.65000000000E+04  0.30000000000E+03 0.  1.
        -52   -1    0    0    0    0 -0.00000000000E+00 -0.00000000000E+00 -0.64930732323E+04  0.65000000000E+04  0.30000000000E+03 0. -1.
     100001    1    1    2    0    0 -0.42500641942E+04 -0.24480111718E+04 -0.42628095662E+04  0.65000000000E+04  0.15050000000E+03 0. -1.
     100001    1    1    2    0    0  0.42500641942E+04  0.24480111718E+04  0.42628095662E+04  0.65000000000E+04  0.15050000000E+03 0.  1.
</event>
<event>
 4    1  0.5640637E-004  0.6500000E+04  0.7818608E-02  0.7223770E-01
         52   -1    0    0    0    0  0.00000000000E+00  0.00000000000E+00  0.64930732323E+04  0.65000000000E+04  0.30000000000E+03 0. -1.
        -52   -1    0    0    0    0 -0.00000000000E+00 -0.00000000000E+00 -0.64930732323E+04  0.65000000000E+04  0.30000000000E+03 0.  1.
     100001    1    1    2    0    0 -0.41348998559E+02  0.83194821302E+03 -0.64446491123E+04  0.65000000000E+04  0.15050000000E+03 0.  1.
     100001    1    1    2    0    0  0.41348998559E+02 -0.83194821302E+03  0.64446491123E+04  0.65000000000E+04  0.15050000000E+03 0. -1.
</event>
<event>
 4    1  0.5640637E-004  0.6500000E+04  0.7818608E-02  0.7223770E-01
         52   -1    0    0    0    0  0.00000000000E+00  0.00000000000E+00  0.64930732323E+04  0.65000000000E+04  0.30000000000E+03 0.  1.
        -52   -1    0    0    0    0 -0.00000000000E+00 -0.00000000000E+00 -0.64930732323E+04  0.65000000000E+04  0.30000000000E+03 0. -1.
     100001    1    1    2    0    0 -0.56255985847E+04 -0.25241540016E+04  0.20514962564E+04  0.65000000000E+04  0.15050000000E+03 0.  1.
     100001    1    1    2    0    0  0.56255985847E+04  0.25241540016E+04 -0.20514962564E+04  0.65000000000E+04  0.15050000000E+03 0. -1.
</event>
<event>
 4    1  0.5640637E-004  0.6500000E+04  0.7818608E-02  0.7223770E-01
         52   -1    0    0    0    0  0.00000000000E+00  0.00000000000E+00  0.64930732323E+04  0.65000000000E+04  0.30000000000E+03 0. -1.
        -52   -1    0    0    0    0 -0.00000000000E+00 -0.00000000000E+00 -0.64930732323E+04  0.65000000000E+04  0.30000000000E+03 0.  1.
     100001    1    1    2    0    0 -0.19944649935E+03  0.62789563858E+03 -0.64647751632E+04  0.65000000000E+04  0.15050000000E+03 0.  1.
     100001    1    1    2    0    0  0.19944649935E+03 -0.62789563858E+03  0.64647751632E+04  0.65000000000E+04  0.15050000000E+03 0. -1.
</event>
<event>
 4    1  0.5640637E-004  0.6500000E+04  0.7818608E-02  0.7223770E-01
         52   -1    0    0    0    0  0.00000000000E+00  0.00000000000E+00  0.64930732323E+04  0.65000000000E+04  0.30000000000E+03 0. -1.
        -52   -1    0    0    0    0 -0.00000000000E+00 -0.00000000000E+00 -0.64930732323E+04  0.65000000000E+04  0.30000000000E+03 0.  1.
     100001    1    1    2    0    0  0.82906076207E+03  0.67907146026E+03 -0.64092799872E+04  0.65000000000E+04  0.15050000000E+03 0.  1.
     100001    1    1    2    0    0 -0.82906076207E+03 -0.67907146026E+03  0.64092799872E+04  0.65000000000E+04  0.15050000000E+03 0. -1.
</event>
<event>
 4    1  0.5640637E-004  0.6500000E+04  0.7818608E-02  0.7223770E-01
         52   -1    0    0    0    0  0.00000000000E+00  0.00000000000E+00  0.64930732323E+04  0.65000000000E+04  0.30000000000E+03 0.  1.
        -52   -1    0    0    0    0 -0.00000000000E+00 -0.00000000000E+00 -0.64930732323E+04  0.65000000000E+04  0.30000000000E+03 0. -1.
     100001    1    1    2    0    0 -0.14595990129E+04  0.59656409609E+03 -0.63040488379E+04  0.65000000000E+04  0.15050000000E+03 0. -1.
     100001    1    1    2    0    0  0.14595990129E+04 -0.59656409609E+03  0.63040488379E+04  0.65000000000E+04  0.15050000000E+03 0.  1.
</event>
<event>
 4    1  0.5640637E-004  0.6500000E+04  0.7818608E-02  0.7223770E-01
         52   -1    0    0    0    0  0.00000000000E+00  0.00000000000E+00  0.64930732323E+04  0.65000000000E+04  0.30000000000E+03 0. -1.
        -52   -1    0    0    0    0 -0.00000000000E+00 -0.00000000000E+00 -0.64930732323E+04  0.65000000000E+04  0.30000000000E+03 0.  1.
     100001    1    1    2    0    0 -0.40988013888E+04  0.25129238211E+04  0.43717720429E+04  0.65000000000E+04  0.15050000000E+03 0. -1.
     100001    1    1    2    0    0  0.40988013888E+04 -0.25129238211E+04 -0.43717720429E+04  0.65000000000E+04  0.15050000000E+03 0.  1.
</event>
<event>
 4    1  0.5640637E-004  0.6500000E+04  0.7818608E-02  0.7223770E-01
         52   -1    0    0    0    0  0.00000000000E+00  0.00000000000E+00  0.64930732323E+04  0.65000000000E+04  0.30000000000E+03 0. -1.
        -52   -1    0    0    0    0 -0.00000000000E+00 -0.00000000000E+00 -0.64930732323E+04  0.65000000000E+04  0.30000000000E+03 0.  1.
     100001    1    1    2    0    0  0.19309514957E+04 -0.12877524887E+04  0.60696350466E+04  0.65000000000E+04  0.15050000000E+03 0. -1.
     100001    1    1    2    0    0 -0.19309514957E+04  0.12877524887E+04 -0.60696350466E+04  0.65000000000E+04  0.15050000000E+03 0.  1.
</event>
<event>
 4    1  0.5640637E-004  0.6500000E+04  0.7818608E-02  0.7223770E-01
         52   -1    0    0    0    0  0.00000000000E+00  0.00000000000E+00  0.64930732323E+04  0.65000000000E+04  0.30000000000E+03 0.  1.
        -52   -1    0    0    0    0 -0.00000000000E+00 -0.00000000000E+00 -0.64930732323E+04  0.65000000000E+04  0.30000000000E+03 0. -1.
     100001    1    1    2    0    0 -0.20934810238E+04  0.20078384015E+03  0.61485260675E+04  0.65000000000E+04  0.15050000000E+03 0.  1.
     100001    1    1    2    0    0  0.20934810238E+04 -0.20078384015E+03 -0.61485260675E+04  0.65000000000E+04  0.15050000000E+03 0. -1.
</event>
<event>
 4    1  0.5640637E-004  0.6500000E+04  0.7818608E-02  0.7223770E-01
         52   -1    0    0    0    0  0.00000000000E+00  0.00000000000E+00  0.64930732323E+04  0.65000000000E+04  0.30000000000E+03 0.  1.
        -52   -1    0    0    0    0 -0.00000000000E+00 -0.00000000000E+00 -0.64930732323E+04  0.65000000000E+04  0.30000000000E+03 0. -1.
     100001    1    1    2    0    0 -0.21722370135E+03 -0.95711987041E+03 -0.64237127245E+04  0.65000000000E+04  0.15050000000E+03 0. -1.
     100001    1    1    2    0    0  0.21722370135E+03  0.95711987041E+03  0.64237127245E+04  0.65000000000E+04  0.15050000000E+03 0.  1.
</event>
<event>
 4    1  0.5640637E-004  0.6500000E+04  0.7818608E-02  0.7223770E-01
         52   -1    0    0    0    0  0.00000000000E+00  0.00000000000E+00  0.64930732323E+04  0.65000000000E+04  0.30000000000E+03 0. -1.
        -52   -1    0    0    0    0 -0.00000000000E+00 -0.00000000000E+00 -0.64930732323E+04  0.65000000000E+04  0.30000000000E+03 0.  1.
     100001    1    1    2    0    0 -0.11033910073E+04  0.17968683431E+04  0.61466366570E+04  0.65000000000E+04  0.15050000000E+03 0. -1.
     100001    1    1    2    0    0  0.11033910073E+04 -0.17968683431E+04 -0.61466366570E+04  0.65000000000E+04  0.15050000000E+03 0.  1.
</event>
<event>
 4    1  0.5640637E-004  0.6500000E+04  0.7818608E-02  0.7223770E-01
         52   -1    0    0    0    0  0.00000000000E+00  0.00000000000E+00  0.64930732323E+04  0.65000000000E+04  0.30000000000E+03 0. -1.
        -52   -1    0    0    0    0 -0.00000000000E+00 -0.00000000000E+00 -0.64930732323E+04  0.65000000000E+04  0.30000000000E+03 0.  1.
     100001    1    1    2    0    0  0.92053315553E+03 -0.13061943303E+04  0.62987161256E+04  0.65000000000E+04  0.15050000000E+03 0. -1.
     100001    1    1    2    0    0 -0.92053315553E+03  0.13061943303E+04 -0.62987161256E+04  0.65000000000E+04  0.15050000000E+03 0.  1.
</event>
<event>
 4    1  0.5640637E-004  0.6500000E+04  0.7818608E-02  0.7223770E-01
         52   -1    0    0    0    0  0.00000000000E+00  0.00000000000E+00  0.64930732323E+04  0.65000000000E+04  0.30000000000E+03 0. -1.
        -52   -1    0    0    0    0 -0.00000000000E+00 -0.00000000000E+00 -0.64930732323E+04  0.65000000000E+04  0.30000000000E+03 0.  1.
     100001    1    1    2    0    0  0.50637748814E+04  0.33128887282E+04 -0.23686076026E+04  0.65000000000E+04  0.15050000000E+03 0.  1.
     100001    1    1    2    0    0 -0.50637748814E+04 -0.33128887282E+04  0.23686076026E+04  0.65000000000E+04  0.15050000000E+03 0. -1.
</event>
<event>
 4    1  0.5640637E-004  0.6500000E+04  0.7818608E-02  0.7223770E-01
         52   -1    0    0    0    0  0.00000000000E+00  0.00000000000E+00  0.64930732323E+04  0.65000000000E+04  0.30000000000E+03 0.  1.
        -52   -1    0    0    0    0 -0.00000000000E+00 -0.00000000000E+00 -0.64930732323E+04  0.65000000000E+04  0.30000000000E+03 0. -1.
     100001    1    1    2    0    0 -0.40496040135E+04 -0.13121589550E+04  0.49098162859E+04  0.65000000000E+04  0.15050000000E+03 0.  1.
     100001    1    1    2    0    0  0.40496040135E+04  0.13121589550E+04 -0.49098162859E+04  0.65000000000E+04  0.15050000000E+03 0. -1.
</event>
<event>
 4    1  0.5640637E-004  0.6500000E+04  0.7818608E-02  0.7223770E-01
         52   -1    0    0    0    0  0.00000000000E+00  0.00000000000E+00  0.64930732323E+04  0.65000000000E+04  0.30000000000E+03 0.  1.
        -52   -1    0    0    0    0 -0.00000000000E+00 -0.00000000000E+00 -0.64930732323E+04  0.65000000000E+04  0.30000000000E+03 0. -1.
     100001    1    1    2    0    0 -0.43242761415E+04  0.90581500046E+03 -0.47652371176E+04  0.65000000000E+04  0.15050000000E+03 0. -1.
     100001    1    1    2    0    0  0.43242761415E+04 -0.90581500046E+03  0.47652371176E+04  0.65000000000E+04  0.15050000000E+03 0.  1.
</event>
<event>
 4    1  0.5640637E-004  0.6500000E+04  0.7818608E-02  0.7223770E-01
         52   -1    0    0    0    0  0.00000000000E+00  0.00000000000E+00  0.64930732323E+04  0.65000000000E+04  0.30000000000E+03 0.  1.
        -52   -1    0    0    0    0 -0.00000000000E+00 -0.00000000000E+00 -0.64930732323E+04  0.65000000000E+04  0.30000000000E+03 0. -1.
     100001    1    1    2    0    0 -0.47878941064E+04 -0.19108916005E+04  0.39562498742E+04  0.65000000000E+04  0.15050000000E+03 0.  1.
     100001    1    1    2    0    0  0.47878941064E+04  0.19108916005E+04 -0.39562498742E+04  0.65000000000E+04  0.15050000000E+03 0. -1.
</event>
<event>
 4    1  0.5640637E-004  0.6500000E+04  0.7818608E-02  0.7223770E-01
         52   -1    0    0    0    0  0.00000000000E+00  0.00000000000E+00  0.64930732323E+04  0.65000000000E+04  0.30000000000E+03 0.  1.
        -52   -1    0    0    0    0 -0.00000000000E+00 -0.00000000000E+00 -0.64930732323E+04  0.65000000000E+04  0.30000000000E+03 0.  1.
     100001    1    1    2    0    0 -0.72335504733E+00  0.78630919722E+02 -0.64977816526E+04  0.65000000000E+04  0.15050000000E+03 0.  1.
     100001    1    1    2    0    0  0.72335504733E+00 -0.78630919722E+02  0.64977816526E+04  0.65000000000E+04  0.15050000000E+03 0.  1.
</event>
<event>
 4    1  0.5640637E-004  0.6500000E+04  0.7818608E-02  0.7223770E-01
         52   -1    0    0    0    0  0.00000000000E+00  0.00000000000E+00  0.64930732323E+04  0.65000000000E+04  0.30000000000E+03 0.  1.
        -52   -1    0    0    0    0 -0.00000000000E+00 -0.00000000000E+00 -0.64930732323E+04  0.65000000000E+04  0.30000000000E+03 0. -1.
     100001    1    1    2    0    0 -0.24899601967E+04  0.28865592510E+04 -0.52626251681E+04  0.65000000000E+04  0.15050000000E+03 0. -1.
     100001    1    1    2    0    0  0.24899601967E+04 -0.28865592510E+04  0.52626251681E+04  0.65000000000E+04  0.15050000000E+03 0.  1.
</event>
<event>
 4    1  0.5640637E-004  0.6500000E+04  0.7818608E-02  0.7223770E-01
         52   -1    0    0    0    0  0.00000000000E+00  0.00000000000E+00  0.64930732323E+04  0.65000000000E+04  0.30000000000E+03 0. -1.
        -52   -1    0    0    0    0 -0.00000000000E+00 -0.00000000000E+00 -0.64930732323E+04  0.65000000000E+04  0.30000000000E+03 0.  1.
     100001    1    1    2    0    0 -0.13562340269E+04  0.26940991231E+03  0.63494407087E+04  0.65000000000E+04  0.15050000000E+03 0. -1.
     100001    1    1    2    0    0  0.13562340269E+04 -0.26940991231E+03 -0.63494407087E+04  0.65000000000E+04  0.15050000000E+03 0.  1.
</event>
<event>
 4    1  0.5640637E-004  0.6500000E+04  0.7818608E-02  0.7223770E-01
         52   -1    0    0    0    0  0.00000000000E+00  0.00000000000E+00  0.64930732323E+04  0.65000000000E+04  0.30000000000E+03 0. -1.
        -52   -1    0    0    0    0 -0.00000000000E+00 -0.00000000000E+00 -0.64930732323E+04  0.65000000000E+04  0.30000000000E+03 0.  1.
     100001    1    1    2    0    0  0.40624318744E+03 -0.50022712323E+03 -0.64662268015E+04  0.65000000000E+04  0.15050000000E+03 0.  1.
     100001    1    1    2    0    0 -0.40624318744E+03  0.50022712323E+03  0.64662268015E+04  0.65000000000E+04  0.15050000000E+03 0. -1.
</event>
<event>
 4    1  0.5640637E-004  0.6500000E+04  0.7818608E-02  0.7223770E-01
         52   -1    0    0    0    0  0.00000000000E+00  0.00000000000E+00  0.64930732323E+04  0.65000000000E+04  0.30000000000E+03 0.  1.
        -52   -1    0    0    0    0 -0.00000000000E+00 -0.00000000000E+00 -0.64930732323E+04  0.65000000000E+04  0.30000000000E+03 0. -1.
     100001    1    1    2    0    0 -0.14362587784E+02 -0.48865466925E+03 -0.64798425969E+04  0.65000000000E+04  0.15050000000E+03 0. -1.
     100001    1    1    2    0    0  0.14362587784E+02  0.48865466925E+03  0.64798425969E+04  0.65000000000E+04  0.15050000000E+03 0.  1.
</event>
<event>
 4    1  0.5640637E-004  0.6500000E+04  0.7818608E-02  0.7223770E-01
         52   -1    0    0    0    0  0.00000000000E+00  0.00000000000E+00  0.64930732323E+04  0.65000000000E+04  0.30000000000E+03 0. -1.
        -52   -1    0    0    0    0 -0.00000000000E+00 -0.00000000000E+00 -0.64930732323E+04  0.65000000000E+04  0.30000000000E+03 0.  1.
     100001    1    1    2    0    0 -0.21239021260E+04 -0.41338055391E+04  0.45418103520E+04  0.65000000000E+04  0.15050000000E+03 0. -1.
     100001    1    1    2    0    0  0.21239021260E+04  0.41338055391E+04 -0.45418103520E+04  0.65000000000E+04  0.15050000000E+03 0.  1.
</event>
<event>
 4    1  0.5640637E-004  0.6500000E+04  0.7818608E-02  0.7223770E-01
         52   -1    0    0    0    0  0.00000000000E+00  0.00000000000E+00  0.64930732323E+04  0.65000000000E+04  0.30000000000E+03 0. -1.
        -52   -1    0    0    0    0 -0.00000000000E+00 -0.00000000000E+00 -0.64930732323E+04  0.65000000000E+04  0.30000000000E+03 0.  1.
     100001    1    1    2    0    0 -0.47438445316E+04 -0.15108001578E+04  0.41762149960E+04  0.65000000000E+04  0.15050000000E+03 0. -1.
     100001    1    1    2    0    0  0.47438445316E+04  0.15108001578E+04 -0.41762149960E+04  0.65000000000E+04  0.15050000000E+03 0.  1.
</event>
<event>
 4    1  0.8498710E-004  0.6500000E+04  0.7818608E-02  0.7223770E-01
         52   -1    0    0    0    0  0.00000000000E+00  0.00000000000E+00  0.64930732323E+04  0.65000000000E+04  0.30000000000E+03 0. -1.
        -52   -1    0    0    0    0 -0.00000000000E+00 -0.00000000000E+00 -0.64930732323E+04  0.65000000000E+04  0.30000000000E+03 0. -1.
     100001    1    1    2    0    0  0.56865964555E+02  0.54320008259E+02 -0.64977815713E+04  0.65000000000E+04  0.15050000000E+03 0. -1.
     100001    1    1    2    0    0 -0.56865964555E+02 -0.54320008259E+02  0.64977815713E+04  0.65000000000E+04  0.15050000000E+03 0. -1.
</event>
<event>
 4    1  0.5640637E-004  0.6500000E+04  0.7818608E-02  0.7223770E-01
         52   -1    0    0    0    0  0.00000000000E+00  0.00000000000E+00  0.64930732323E+04  0.65000000000E+04  0.30000000000E+03 0.  1.
        -52   -1    0    0    0    0 -0.00000000000E+00 -0.00000000000E+00 -0.64930732323E+04  0.65000000000E+04  0.30000000000E+03 0. -1.
     100001    1    1    2    0    0  0.12620458974E+04 -0.13564652163E+03 -0.63730832353E+04  0.65000000000E+04  0.15050000000E+03 0. -1.
     100001    1    1    2    0    0 -0.12620458974E+04  0.13564652163E+03  0.63730832353E+04  0.65000000000E+04  0.15050000000E+03 0.  1.
</event>
<event>
 4    1  0.5640637E-004  0.6500000E+04  0.7818608E-02  0.7223770E-01
         52   -1    0    0    0    0  0.00000000000E+00  0.00000000000E+00  0.64930732323E+04  0.65000000000E+04  0.30000000000E+03 0.  1.
        -52   -1    0    0    0    0 -0.00000000000E+00 -0.00000000000E+00 -0.64930732323E+04  0.65000000000E+04  0.30000000000E+03 0. -1.
     100001    1    1    2    0    0  0.38143737881E+03  0.58649031430E+03 -0.64604863894E+04  0.65000000000E+04  0.15050000000E+03 0. -1.
     100001    1    1    2    0    0 -0.38143737881E+03 -0.58649031430E+03  0.64604863894E+04  0.65000000000E+04  0.15050000000E+03 0.  1.
</event>
<event>
 4    1  0.5640637E-004  0.6500000E+04  0.7818608E-02  0.7223770E-01
         52   -1    0    0    0    0  0.00000000000E+00  0.00000000000E+00  0.64930732323E+04  0.65000000000E+04  0.30000000000E+03 0.  1.
        -52   -1    0    0    0    0 -0.00000000000E+00 -0.00000000000E+00 -0.64930732323E+04  0.65000000000E+04  0.30000000000E+03 0. -1.
     100001    1    1    2    0    0 -0.10928617841E+04  0.35902282995E+03  0.63956317498E+04  0.65000000000E+04  0.15050000000E+03 0.  1.
     100001    1    1    2    0    0  0.10928617841E+04 -0.35902282995E+03 -0.63956317498E+04  0.65000000000E+04  0.15050000000E+03 0. -1.
</event>
<event>
 4    1  0.5640637E-004  0.6500000E+04  0.7818608E-02  0.7223770E-01
         52   -1    0    0    0    0  0.00000000000E+00  0.00000000000E+00  0.64930732323E+04  0.65000000000E+04  0.30000000000E+03 0.  1.
        -52   -1    0    0    0    0 -0.00000000000E+00 -0.00000000000E+00 -0.64930732323E+04  0.65000000000E+04  0.30000000000E+03 0.  1.
     100001    1    1    2    0    0 -0.12447097005E+03 -0.73509889068E+02  0.64966493690E+04  0.65000000000E+04  0.15050000000E+03 0.  1.
     100001    1    1    2    0    0  0.12447097005E+03  0.73509889068E+02 -0.64966493690E+04  0.65000000000E+04  0.15050000000E+03 0.  1.
</event>
<event>
 4    1  0.5640637E-004  0.6500000E+04  0.7818608E-02  0.7223770E-01
         52   -1    0    0    0    0  0.00000000000E+00  0.00000000000E+00  0.64930732323E+04  0.65000000000E+04  0.30000000000E+03 0. -1.
        -52   -1    0    0    0    0 -0.00000000000E+00 -0.00000000000E+00 -0.64930732323E+04  0.65000000000E+04  0.30000000000E+03 0.  1.
     100001    1    1    2    0    0  0.47601476952E+04 -0.34286027503E+04  0.27951792162E+04  0.65000000000E+04  0.15050000000E+03 0. -1.
     100001    1    1    2    0    0 -0.47601476952E+04  0.34286027503E+04 -0.27951792162E+04  0.65000000000E+04  0.15050000000E+03 0.  1.
</event>
<event>
 4    1  0.5640637E-004  0.6500000E+04  0.7818608E-02  0.7223770E-01
         52   -1    0    0    0    0  0.00000000000E+00  0.00000000000E+00  0.64930732323E+04  0.65000000000E+04  0.30000000000E+03 0. -1.
        -52   -1    0    0    0    0 -0.00000000000E+00 -0.00000000000E+00 -0.64930732323E+04  0.65000000000E+04  0.30000000000E+03 0. -1.
     100001    1    1    2    0    0  0.59551122920E+02 -0.43257669119E+03 -0.64835700675E+04  0.65000000000E+04  0.15050000000E+03 0. -1.
     100001    1    1    2    0    0 -0.59551122920E+02  0.43257669119E+03  0.64835700675E+04  0.65000000000E+04  0.15050000000E+03 0. -1.
</event>
<event>
 4    1  0.5640637E-004  0.6500000E+04  0.7818608E-02  0.7223770E-01
         52   -1    0    0    0    0  0.00000000000E+00  0.00000000000E+00  0.64930732323E+04  0.65000000000E+04  0.30000000000E+03 0.  1.
        -52   -1    0    0    0    0 -0.00000000000E+00 -0.00000000000E+00 -0.64930732323E+04  0.65000000000E+04  0.30000000000E+03 0. -1.
     100001    1    1    2    0    0  0.25756759181E+04 -0.50610689623E+04 -0.31589277094E+04  0.65000000000E+04  0.15050000000E+03 0. -1.
     100001    1    1    2    0    0 -0.25756759181E+04  0.50610689623E+04  0.31589277094E+04  0.65000000000E+04  0.15050000000E+03 0.  1.
</event>
<event>
 4    1  0.6395608E-004  0.6500000E+04  0.7818608E-02  0.7223770E-01
         52   -1    0    0    0    0  0.00000000000E+00  0.00000000000E+00  0.64930732323E+04  0.65000000000E+04  0.30000000000E+03 0.  1.
        -52   -1    0    0    0    0 -0.00000000000E+00 -0.00000000000E+00 -0.64930732323E+04  0.65000000000E+04  0.30000000000E+03 0.  1.
     100001    1    1    2    0    0 -0.14596270526E+03 -0.71386255070E+02 -0.64962257228E+04  0.65000000000E+04  0.15050000000E+03 0.  1.
     100001    1    1    2    0    0  0.14596270526E+03  0.71386255070E+02  0.64962257228E+04  0.65000000000E+04  0.15050000000E+03 0.  1.
</event>
<event>
 4    1  0.5640637E-004  0.6500000E+04  0.7818608E-02  0.7223770E-01
         52   -1    0    0    0    0  0.00000000000E+00  0.00000000000E+00  0.64930732323E+04  0.65000000000E+04  0.30000000000E+03 0.  1.
        -52   -1    0    0    0    0 -0.00000000000E+00 -0.00000000000E+00 -0.64930732323E+04  0.65000000000E+04  0.30000000000E+03 0. -1.
     100001    1    1    2    0    0 -0.70815369309E+03 -0.63567863404E+03  0.64282019859E+04  0.65000000000E+04  0.15050000000E+03 0.  1.
     100001    1    1    2    0    0  0.70815369309E+03  0.63567863404E+03 -0.64282019859E+04  0.65000000000E+04  0.15050000000E+03 0. -1.
</event>
<event>
 4    1  0.5640637E-004  0.6500000E+04  0.7818608E-02  0.7223770E-01
         52   -1    0    0    0    0  0.00000000000E+00  0.00000000000E+00  0.64930732323E+04  0.65000000000E+04  0.30000000000E+03 0. -1.
        -52   -1    0    0    0    0 -0.00000000000E+00 -0.00000000000E+00 -0.64930732323E+04  0.65000000000E+04  0.30000000000E+03 0.  1.
     100001    1    1    2    0    0 -0.12783961165E+03 -0.82860533447E+03  0.64439444429E+04  0.65000000000E+04  0.15050000000E+03 0. -1.
     100001    1    1    2    0    0  0.12783961165E+03  0.82860533447E+03 -0.64439444429E+04  0.65000000000E+04  0.15050000000E+03 0.  1.
</event>
<event>
 4    1  0.5640637E-004  0.6500000E+04  0.7818608E-02  0.7223770E-01
         52   -1    0    0    0    0  0.00000000000E+00  0.00000000000E+00  0.64930732323E+04  0.65000000000E+04  0.30000000000E+03 0. -1.
        -52   -1    0    0    0    0 -0.00000000000E+00 -0.00000000000E+00 -0.64930732323E+04  0.65000000000E+04  0.30000000000E+03 0.  1.
     100001    1    1    2    0    0 -0.13362812293E+04 -0.83613661765E+03 -0.63041714589E+04  0.65000000000E+04  0.15050000000E+03 0.  1.
     100001    1    1    2    0    0  0.13362812293E+04  0.83613661765E+03  0.63041714589E+04  0.65000000000E+04  0.15050000000E+03 0. -1.
</event>
<event>
 4    1  0.5640637E-004  0.6500000E+04  0.7818608E-02  0.7223770E-01
         52   -1    0    0    0    0  0.00000000000E+00  0.00000000000E+00  0.64930732323E+04  0.65000000000E+04  0.30000000000E+03 0.  1.
        -52   -1    0    0    0    0 -0.00000000000E+00 -0.00000000000E+00 -0.64930732323E+04  0.65000000000E+04  0.30000000000E+03 0. -1.
     100001    1    1    2    0    0 -0.11715009029E+04  0.84028502076E+03  0.63363125293E+04  0.65000000000E+04  0.15050000000E+03 0.  1.
     100001    1    1    2    0    0  0.11715009029E+04 -0.84028502076E+03 -0.63363125293E+04  0.65000000000E+04  0.15050000000E+03 0. -1.
</event>
<event>
 4    1  0.5640637E-004  0.6500000E+04  0.7818608E-02  0.7223770E-01
         52   -1    0    0    0    0  0.00000000000E+00  0.00000000000E+00  0.64930732323E+04  0.65000000000E+04  0.30000000000E+03 0.  1.
        -52   -1    0    0    0    0 -0.00000000000E+00 -0.00000000000E+00 -0.64930732323E+04  0.65000000000E+04  0.30000000000E+03 0.  1.
     100001    1    1    2    0    0  0.18562415767E+03 -0.53624628053E+03 -0.64734328875E+04  0.65000000000E+04  0.15050000000E+03 0.  1.
     100001    1    1    2    0    0 -0.18562415767E+03  0.53624628053E+03  0.64734328875E+04  0.65000000000E+04  0.15050000000E+03 0.  1.
</event>
<event>
 4    1  0.5640637E-004  0.6500000E+04  0.7818608E-02  0.7223770E-01
         52   -1    0    0    0    0  0.00000000000E+00  0.00000000000E+00  0.64930732323E+04  0.65000000000E+04  0.30000000000E+03 0.  1.
        -52   -1    0    0    0    0 -0.00000000000E+00 -0.00000000000E+00 -0.64930732323E+04  0.65000000000E+04  0.30000000000E+03 0. -1.
     100001    1    1    2    0    0  0.89462695918E+02 -0.62694923303E+03  0.64673240861E+04  0.65000000000E+04  0.15050000000E+03 0.  1.
     100001    1    1    2    0    0 -0.89462695918E+02  0.62694923303E+03 -0.64673240861E+04  0.65000000000E+04  0.15050000000E+03 0. -1.
</event>
<event>
 4    1  0.5640637E-004  0.6500000E+04  0.7818608E-02  0.7223770E-01
         52   -1    0    0    0    0  0.00000000000E+00  0.00000000000E+00  0.64930732323E+04  0.65000000000E+04  0.30000000000E+03 0. -1.
        -52   -1    0    0    0    0 -0.00000000000E+00 -0.00000000000E+00 -0.64930732323E+04  0.65000000000E+04  0.30000000000E+03 0.  1.
     100001    1    1    2    0    0 -0.70742903435E+03  0.10810360770E+04 -0.63685363241E+04  0.65000000000E+04  0.15050000000E+03 0.  1.
     100001    1    1    2    0    0  0.70742903435E+03 -0.10810360770E+04  0.63685363241E+04  0.65000000000E+04  0.15050000000E+03 0. -1.
</event>
<event>
 4    1  0.5640637E-004  0.6500000E+04  0.7818608E-02  0.7223770E-01
         52   -1    0    0    0    0  0.00000000000E+00  0.00000000000E+00  0.64930732323E+04  0.65000000000E+04  0.30000000000E+03 0. -1.
        -52   -1    0    0    0    0 -0.00000000000E+00 -0.00000000000E+00 -0.64930732323E+04  0.65000000000E+04  0.30000000000E+03 0. -1.
     100001    1    1    2    0    0  0.98449866325E+02 -0.23378940569E+03 -0.64933042349E+04  0.65000000000E+04  0.15050000000E+03 0. -1.
     100001    1    1    2    0    0 -0.98449866325E+02  0.23378940569E+03  0.64933042349E+04  0.65000000000E+04  0.15050000000E+03 0. -1.
</event>
<event>
 4    1  0.5640637E-004  0.6500000E+04  0.7818608E-02  0.7223770E-01
         52   -1    0    0    0    0  0.00000000000E+00  0.00000000000E+00  0.64930732323E+04  0.65000000000E+04  0.30000000000E+03 0.  1.
        -52   -1    0    0    0    0 -0.00000000000E+00 -0.00000000000E+00 -0.64930732323E+04  0.65000000000E+04  0.30000000000E+03 0. -1.
     100001    1    1    2    0    0 -0.42848524719E+03  0.18868821886E+03  0.64813692148E+04  0.65000000000E+04  0.15050000000E+03 0.  1.
     100001    1    1    2    0    0  0.42848524719E+03 -0.18868821886E+03 -0.64813692148E+04  0.65000000000E+04  0.15050000000E+03 0. -1.
</event>
<event>
 4    1  0.5640637E-004  0.6500000E+04  0.7818608E-02  0.7223770E-01
         52   -1    0    0    0    0  0.00000000000E+00  0.00000000000E+00  0.64930732323E+04  0.65000000000E+04  0.30000000000E+03 0. -1.
        -52   -1    0    0    0    0 -0.00000000000E+00 -0.00000000000E+00 -0.64930732323E+04  0.65000000000E+04  0.30000000000E+03 0.  1.
     100001    1    1    2    0    0  0.43943541888E+04  0.37514282793E+04 -0.29738505138E+04  0.65000000000E+04  0.15050000000E+03 0. -1.
     100001    1    1    2    0    0 -0.43943541888E+04 -0.37514282793E+04  0.29738505138E+04  0.65000000000E+04  0.15050000000E+03 0.  1.
</event>
<event>
 4    1  0.5640637E-004  0.6500000E+04  0.7818608E-02  0.7223770E-01
         52   -1    0    0    0    0  0.00000000000E+00  0.00000000000E+00  0.64930732323E+04  0.65000000000E+04  0.30000000000E+03 0.  1.
        -52   -1    0    0    0    0 -0.00000000000E+00 -0.00000000000E+00 -0.64930732323E+04  0.65000000000E+04  0.30000000000E+03 0. -1.
     100001    1    1    2    0    0 -0.30053490704E+04  0.28836524787E+04 -0.49879630209E+04  0.65000000000E+04  0.15050000000E+03 0. -1.
     100001    1    1    2    0    0  0.30053490704E+04 -0.28836524787E+04  0.49879630209E+04  0.65000000000E+04  0.15050000000E+03 0.  1.
</event>
<event>
 4    1  0.5640637E-004  0.6500000E+04  0.7818608E-02  0.7223770E-01
         52   -1    0    0    0    0  0.00000000000E+00  0.00000000000E+00  0.64930732323E+04  0.65000000000E+04  0.30000000000E+03 0. -1.
        -52   -1    0    0    0    0 -0.00000000000E+00 -0.00000000000E+00 -0.64930732323E+04  0.65000000000E+04  0.30000000000E+03 0.  1.
     100001    1    1    2    0    0  0.14903374815E+03 -0.76424271779E+03  0.64514395107E+04  0.65000000000E+04  0.15050000000E+03 0. -1.
     100001    1    1    2    0    0 -0.14903374815E+03  0.76424271779E+03 -0.64514395107E+04  0.65000000000E+04  0.15050000000E+03 0.  1.
</event>
<event>
 4    1  0.5640637E-004  0.6500000E+04  0.7818608E-02  0.7223770E-01
         52   -1    0    0    0    0  0.00000000000E+00  0.00000000000E+00  0.64930732323E+04  0.65000000000E+04  0.30000000000E+03 0.  1.
        -52   -1    0    0    0    0 -0.00000000000E+00 -0.00000000000E+00 -0.64930732323E+04  0.65000000000E+04  0.30000000000E+03 0. -1.
     100001    1    1    2    0    0 -0.93480140161E+03  0.51004811797E+02  0.64304661261E+04  0.65000000000E+04  0.15050000000E+03 0.  1.
     100001    1    1    2    0    0  0.93480140161E+03 -0.51004811797E+02 -0.64304661261E+04  0.65000000000E+04  0.15050000000E+03 0. -1.
</event>
<event>
 4    1  0.9105985E-004  0.6500000E+04  0.7818608E-02  0.7223770E-01
         52   -1    0    0    0    0  0.00000000000E+00  0.00000000000E+00  0.64930732323E+04  0.65000000000E+04  0.30000000000E+03 0. -1.
        -52   -1    0    0    0    0 -0.00000000000E+00 -0.00000000000E+00 -0.64930732323E+04  0.65000000000E+04  0.30000000000E+03 0. -1.
     100001    1    1    2    0    0 -0.65784160878E+01  0.89275541970E+02  0.64976408297E+04  0.65000000000E+04  0.15050000000E+03 0. -1.
     100001    1    1    2    0    0  0.65784160878E+01 -0.89275541970E+02 -0.64976408297E+04  0.65000000000E+04  0.15050000000E+03 0. -1.
</event>
<event>
 4    1  0.5640637E-004  0.6500000E+04  0.7818608E-02  0.7223770E-01
         52   -1    0    0    0    0  0.00000000000E+00  0.00000000000E+00  0.64930732323E+04  0.65000000000E+04  0.30000000000E+03 0.  1.
        -52   -1    0    0    0    0 -0.00000000000E+00 -0.00000000000E+00 -0.64930732323E+04  0.65000000000E+04  0.30000000000E+03 0. -1.
     100001    1    1    2    0    0 -0.10950206038E+04 -0.33845441124E+04 -0.54381192317E+04  0.65000000000E+04  0.15050000000E+03 0. -1.
     100001    1    1    2    0    0  0.10950206038E+04  0.33845441124E+04  0.54381192317E+04  0.65000000000E+04  0.15050000000E+03 0.  1.
</event>
<event>
 4    1  0.5640637E-004  0.6500000E+04  0.7818608E-02  0.7223770E-01
         52   -1    0    0    0    0  0.00000000000E+00  0.00000000000E+00  0.64930732323E+04  0.65000000000E+04  0.30000000000E+03 0.  1.
        -52   -1    0    0    0    0 -0.00000000000E+00 -0.00000000000E+00 -0.64930732323E+04  0.65000000000E+04  0.30000000000E+03 0. -1.
     100001    1    1    2    0    0  0.30047799203E+04  0.77071696600E+03  0.57100475251E+04  0.65000000000E+04  0.15050000000E+03 0.  1.
     100001    1    1    2    0    0 -0.30047799203E+04 -0.77071696600E+03 -0.57100475251E+04  0.65000000000E+04  0.15050000000E+03 0. -1.
</event>
<event>
 4    1  0.5640637E-004  0.6500000E+04  0.7818608E-02  0.7223770E-01
         52   -1    0    0    0    0  0.00000000000E+00  0.00000000000E+00  0.64930732323E+04  0.65000000000E+04  0.30000000000E+03 0. -1.
        -52   -1    0    0    0    0 -0.00000000000E+00 -0.00000000000E+00 -0.64930732323E+04  0.65000000000E+04  0.30000000000E+03 0.  1.
     100001    1    1    2    0    0 -0.14640608736E+04  0.71940338635E+03 -0.62901776029E+04  0.65000000000E+04  0.15050000000E+03 0.  1.
     100001    1    1    2    0    0  0.14640608736E+04 -0.71940338635E+03  0.62901776029E+04  0.65000000000E+04  0.15050000000E+03 0. -1.
</event>
<event>
 4    1  0.5640637E-004  0.6500000E+04  0.7818608E-02  0.7223770E-01
         52   -1    0    0    0    0  0.00000000000E+00  0.00000000000E+00  0.64930732323E+04  0.65000000000E+04  0.30000000000E+03 0. -1.
        -52   -1    0    0    0    0 -0.00000000000E+00 -0.00000000000E+00 -0.64930732323E+04  0.65000000000E+04  0.30000000000E+03 0.  1.
     100001    1    1    2    0    0  0.15933585319E+03  0.29172908718E+03  0.64897500703E+04  0.65000000000E+04  0.15050000000E+03 0. -1.
     100001    1    1    2    0    0 -0.15933585319E+03 -0.29172908718E+03 -0.64897500703E+04  0.65000000000E+04  0.15050000000E+03 0.  1.
</event>
<event>
 4    1  0.5640637E-004  0.6500000E+04  0.7818608E-02  0.7223770E-01
         52   -1    0    0    0    0  0.00000000000E+00  0.00000000000E+00  0.64930732323E+04  0.65000000000E+04  0.30000000000E+03 0. -1.
        -52   -1    0    0    0    0 -0.00000000000E+00 -0.00000000000E+00 -0.64930732323E+04  0.65000000000E+04  0.30000000000E+03 0.  1.
     100001    1    1    2    0    0 -0.62195076412E+03  0.12979113513E+03 -0.64671231052E+04  0.65000000000E+04  0.15050000000E+03 0.  1.
     100001    1    1    2    0    0  0.62195076412E+03 -0.12979113513E+03  0.64671231052E+04  0.65000000000E+04  0.15050000000E+03 0. -1.
</event>
<event>
 4    1  0.5640637E-004  0.6500000E+04  0.7818608E-02  0.7223770E-01
         52   -1    0    0    0    0  0.00000000000E+00  0.00000000000E+00  0.64930732323E+04  0.65000000000E+04  0.30000000000E+03 0. -1.
        -52   -1    0    0    0    0 -0.00000000000E+00 -0.00000000000E+00 -0.64930732323E+04  0.65000000000E+04  0.30000000000E+03 0.  1.
     100001    1    1    2    0    0 -0.77429162270E+03  0.42773105263E+03  0.64377688977E+04  0.65000000000E+04  0.15050000000E+03 0. -1.
     100001    1    1    2    0    0  0.77429162270E+03 -0.42773105263E+03 -0.64377688977E+04  0.65000000000E+04  0.15050000000E+03 0.  1.
</event>
<event>
 4    1  0.5640637E-004  0.6500000E+04  0.7818608E-02  0.7223770E-01
         52   -1    0    0    0    0  0.00000000000E+00  0.00000000000E+00  0.64930732323E+04  0.65000000000E+04  0.30000000000E+03 0.  1.
        -52   -1    0    0    0    0 -0.00000000000E+00 -0.00000000000E+00 -0.64930732323E+04  0.65000000000E+04  0.30000000000E+03 0. -1.
     100001    1    1    2    0    0 -0.40255353017E+04  0.16569098721E+04  0.48246310699E+04  0.65000000000E+04  0.15050000000E+03 0.  1.
     100001    1    1    2    0    0  0.40255353017E+04 -0.16569098721E+04 -0.48246310699E+04  0.65000000000E+04  0.15050000000E+03 0. -1.
</event>
<event>
 4    1  0.5640637E-004  0.6500000E+04  0.7818608E-02  0.7223770E-01
         52   -1    0    0    0    0  0.00000000000E+00  0.00000000000E+00  0.64930732323E+04  0.65000000000E+04  0.30000000000E+03 0.  1.
        -52   -1    0    0    0    0 -0.00000000000E+00 -0.00000000000E+00 -0.64930732323E+04  0.65000000000E+04  0.30000000000E+03 0. -1.
     100001    1    1    2    0    0 -0.27852693433E+04  0.25722414630E+04 -0.52776129350E+04  0.65000000000E+04  0.15050000000E+03 0. -1.
     100001    1    1    2    0    0  0.27852693433E+04 -0.25722414630E+04  0.52776129350E+04  0.65000000000E+04  0.15050000000E+03 0.  1.
</event>
<event>
 4    1  0.5640637E-004  0.6500000E+04  0.7818608E-02  0.7223770E-01
         52   -1    0    0    0    0  0.00000000000E+00  0.00000000000E+00  0.64930732323E+04  0.65000000000E+04  0.30000000000E+03 0.  1.
        -52   -1    0    0    0    0 -0.00000000000E+00 -0.00000000000E+00 -0.64930732323E+04  0.65000000000E+04  0.30000000000E+03 0. -1.
     100001    1    1    2    0    0  0.48212478101E+04 -0.32542629128E+03 -0.43447689275E+04  0.65000000000E+04  0.15050000000E+03 0. -1.
     100001    1    1    2    0    0 -0.48212478101E+04  0.32542629128E+03  0.43447689275E+04  0.65000000000E+04  0.15050000000E+03 0.  1.
</event>
<event>
 4    1  0.5640637E-004  0.6500000E+04  0.7818608E-02  0.7223770E-01
         52   -1    0    0    0    0  0.00000000000E+00  0.00000000000E+00  0.64930732323E+04  0.65000000000E+04  0.30000000000E+03 0.  1.
        -52   -1    0    0    0    0 -0.00000000000E+00 -0.00000000000E+00 -0.64930732323E+04  0.65000000000E+04  0.30000000000E+03 0. -1.
     100001    1    1    2    0    0  0.55318777613E+03  0.57869779940E+03  0.64487550652E+04  0.65000000000E+04  0.15050000000E+03 0.  1.
     100001    1    1    2    0    0 -0.55318777613E+03 -0.57869779940E+03 -0.64487550652E+04  0.65000000000E+04  0.15050000000E+03 0. -1.
</event>
<event>
 4    1  0.5640637E-004  0.6500000E+04  0.7818608E-02  0.7223770E-01
         52   -1    0    0    0    0  0.00000000000E+00  0.00000000000E+00  0.64930732323E+04  0.65000000000E+04  0.30000000000E+03 0.  1.
        -52   -1    0    0    0    0 -0.00000000000E+00 -0.00000000000E+00 -0.64930732323E+04  0.65000000000E+04  0.30000000000E+03 0. -1.
     100001    1    1    2    0    0  0.29383398424E+03 -0.14933951202E+03 -0.64898928381E+04  0.65000000000E+04  0.15050000000E+03 0. -1.
     100001    1    1    2    0    0 -0.29383398424E+03  0.14933951202E+03  0.64898928381E+04  0.65000000000E+04  0.15050000000E+03 0.  1.
</event>
<event>
 4    1  0.5640637E-004  0.6500000E+04  0.7818608E-02  0.7223770E-01
         52   -1    0    0    0    0  0.00000000000E+00  0.00000000000E+00  0.64930732323E+04  0.65000000000E+04  0.30000000000E+03 0.  1.
        -52   -1    0    0    0    0 -0.00000000000E+00 -0.00000000000E+00 -0.64930732323E+04  0.65000000000E+04  0.30000000000E+03 0. -1.
     100001    1    1    2    0    0 -0.77662993414E+03 -0.12953625232E+04  0.63203031279E+04  0.65000000000E+04  0.15050000000E+03 0.  1.
     100001    1    1    2    0    0  0.77662993414E+03  0.12953625232E+04 -0.63203031279E+04  0.65000000000E+04  0.15050000000E+03 0. -1.
</event>
<event>
 4    1  0.5640637E-004  0.6500000E+04  0.7818608E-02  0.7223770E-01
         52   -1    0    0    0    0  0.00000000000E+00  0.00000000000E+00  0.64930732323E+04  0.65000000000E+04  0.30000000000E+03 0.  1.
        -52   -1    0    0    0    0 -0.00000000000E+00 -0.00000000000E+00 -0.64930732323E+04  0.65000000000E+04  0.30000000000E+03 0. -1.
     100001    1    1    2    0    0 -0.22004455892E+04 -0.53102283663E+04 -0.30309839419E+04  0.65000000000E+04  0.15050000000E+03 0. -1.
     100001    1    1    2    0    0  0.22004455892E+04  0.53102283663E+04  0.30309839419E+04  0.65000000000E+04  0.15050000000E+03 0.  1.
</event>
<event>
 4    1  0.5640637E-004  0.6500000E+04  0.7818608E-02  0.7223770E-01
         52   -1    0    0    0    0  0.00000000000E+00  0.00000000000E+00  0.64930732323E+04  0.65000000000E+04  0.30000000000E+03 0. -1.
        -52   -1    0    0    0    0 -0.00000000000E+00 -0.00000000000E+00 -0.64930732323E+04  0.65000000000E+04  0.30000000000E+03 0.  1.
     100001    1    1    2    0    0 -0.66577997932E+03 -0.32330760763E+04  0.55974374364E+04  0.65000000000E+04  0.15050000000E+03 0. -1.
     100001    1    1    2    0    0  0.66577997932E+03  0.32330760763E+04 -0.55974374364E+04  0.65000000000E+04  0.15050000000E+03 0.  1.
</event>
<event>
 4    1  0.5640637E-004  0.6500000E+04  0.7818608E-02  0.7223770E-01
         52   -1    0    0    0    0  0.00000000000E+00  0.00000000000E+00  0.64930732323E+04  0.65000000000E+04  0.30000000000E+03 0. -1.
        -52   -1    0    0    0    0 -0.00000000000E+00 -0.00000000000E+00 -0.64930732323E+04  0.65000000000E+04  0.30000000000E+03 0.  1.
     100001    1    1    2    0    0  0.53543231889E+03  0.80050062809E+02 -0.64756662954E+04  0.65000000000E+04  0.15050000000E+03 0.  1.
     100001    1    1    2    0    0 -0.53543231889E+03 -0.80050062809E+02  0.64756662954E+04  0.65000000000E+04  0.15050000000E+03 0. -1.
</event>
<event>
 4    1  0.5640637E-004  0.6500000E+04  0.7818608E-02  0.7223770E-01
         52   -1    0    0    0    0  0.00000000000E+00  0.00000000000E+00  0.64930732323E+04  0.65000000000E+04  0.30000000000E+03 0.  1.
        -52   -1    0    0    0    0 -0.00000000000E+00 -0.00000000000E+00 -0.64930732323E+04  0.65000000000E+04  0.30000000000E+03 0. -1.
     100001    1    1    2    0    0  0.64699568551E+03  0.45804984567E+04 -0.45637462923E+04  0.65000000000E+04  0.15050000000E+03 0. -1.
     100001    1    1    2    0    0 -0.64699568551E+03 -0.45804984567E+04  0.45637462923E+04  0.65000000000E+04  0.15050000000E+03 0.  1.
</event>
<event>
 4    1  0.5640637E-004  0.6500000E+04  0.7818608E-02  0.7223770E-01
         52   -1    0    0    0    0  0.00000000000E+00  0.00000000000E+00  0.64930732323E+04  0.65000000000E+04  0.30000000000E+03 0.  1.
        -52   -1    0    0    0    0 -0.00000000000E+00 -0.00000000000E+00 -0.64930732323E+04  0.65000000000E+04  0.30000000000E+03 0. -1.
     100001    1    1    2    0    0 -0.25503471538E+03 -0.80829485127E+03 -0.64427452594E+04  0.65000000000E+04  0.15050000000E+03 0. -1.
     100001    1    1    2    0    0  0.25503471538E+03  0.80829485127E+03  0.64427452594E+04  0.65000000000E+04  0.15050000000E+03 0.  1.
</event>
<event>
 4    1  0.5640637E-004  0.6500000E+04  0.7818608E-02  0.7223770E-01
         52   -1    0    0    0    0  0.00000000000E+00  0.00000000000E+00  0.64930732323E+04  0.65000000000E+04  0.30000000000E+03 0. -1.
        -52   -1    0    0    0    0 -0.00000000000E+00 -0.00000000000E+00 -0.64930732323E+04  0.65000000000E+04  0.30000000000E+03 0.  1.
     100001    1    1    2    0    0 -0.28875723652E+03  0.64908274027E+02 -0.64915141473E+04  0.65000000000E+04  0.15050000000E+03 0.  1.
     100001    1    1    2    0    0  0.28875723652E+03 -0.64908274027E+02  0.64915141473E+04  0.65000000000E+04  0.15050000000E+03 0. -1.
</event>
<event>
 4    1  0.6910436E-004  0.6500000E+04  0.7818608E-02  0.7223770E-01
         52   -1    0    0    0    0  0.00000000000E+00  0.00000000000E+00  0.64930732323E+04  0.65000000000E+04  0.30000000000E+03 0.  1.
        -52   -1    0    0    0    0 -0.00000000000E+00 -0.00000000000E+00 -0.64930732323E+04  0.65000000000E+04  0.30000000000E+03 0.  1.
     100001    1    1    2    0    0 -0.10353572490E+03 -0.11834377347E+03 -0.64963547359E+04  0.65000000000E+04  0.15050000000E+03 0.  1.
     100001    1    1    2    0    0  0.10353572490E+03  0.11834377347E+03  0.64963547359E+04  0.65000000000E+04  0.15050000000E+03 0.  1.
</event>
<event>
 4    1  0.5640637E-004  0.6500000E+04  0.7818608E-02  0.7223770E-01
         52   -1    0    0    0    0  0.00000000000E+00  0.00000000000E+00  0.64930732323E+04  0.65000000000E+04  0.30000000000E+03 0.  1.
        -52   -1    0    0    0    0 -0.00000000000E+00 -0.00000000000E+00 -0.64930732323E+04  0.65000000000E+04  0.30000000000E+03 0. -1.
     100001    1    1    2    0    0 -0.62569393709E+04 -0.11201754226E+04 -0.13502838521E+04  0.65000000000E+04  0.15050000000E+03 0.  1.
     100001    1    1    2    0    0  0.62569393709E+04  0.11201754226E+04  0.13502838521E+04  0.65000000000E+04  0.15050000000E+03 0. -1.
</event>
<event>
 4    1  0.5640637E-004  0.6500000E+04  0.7818608E-02  0.7223770E-01
         52   -1    0    0    0    0  0.00000000000E+00  0.00000000000E+00  0.64930732323E+04  0.65000000000E+04  0.30000000000E+03 0.  1.
        -52   -1    0    0    0    0 -0.00000000000E+00 -0.00000000000E+00 -0.64930732323E+04  0.65000000000E+04  0.30000000000E+03 0. -1.
     100001    1    1    2    0    0 -0.20214662102E+03 -0.14056417753E+03 -0.64935913180E+04  0.65000000000E+04  0.15050000000E+03 0. -1.
     100001    1    1    2    0    0  0.20214662102E+03  0.14056417753E+03  0.64935913180E+04  0.65000000000E+04  0.15050000000E+03 0.  1.
</event>
<event>
 4    1  0.5640637E-004  0.6500000E+04  0.7818608E-02  0.7223770E-01
         52   -1    0    0    0    0  0.00000000000E+00  0.00000000000E+00  0.64930732323E+04  0.65000000000E+04  0.30000000000E+03 0. -1.
        -52   -1    0    0    0    0 -0.00000000000E+00 -0.00000000000E+00 -0.64930732323E+04  0.65000000000E+04  0.30000000000E+03 0.  1.
     100001    1    1    2    0    0  0.64135753744E+04 -0.13777599433E+03 -0.10365415775E+04  0.65000000000E+04  0.15050000000E+03 0.  1.
     100001    1    1    2    0    0 -0.64135753744E+04  0.13777599433E+03  0.10365415775E+04  0.65000000000E+04  0.15050000000E+03 0. -1.
</event>
<event>
 4    1  0.5640637E-004  0.6500000E+04  0.7818608E-02  0.7223770E-01
         52   -1    0    0    0    0  0.00000000000E+00  0.00000000000E+00  0.64930732323E+04  0.65000000000E+04  0.30000000000E+03 0.  1.
        -52   -1    0    0    0    0 -0.00000000000E+00 -0.00000000000E+00 -0.64930732323E+04  0.65000000000E+04  0.30000000000E+03 0. -1.
     100001    1    1    2    0    0 -0.64439483349E+04  0.77558532765E+03  0.31835044722E+03  0.65000000000E+04  0.15050000000E+03 0.  1.
     100001    1    1    2    0    0  0.64439483349E+04 -0.77558532765E+03 -0.31835044722E+03  0.65000000000E+04  0.15050000000E+03 0. -1.
</event>
<event>
 4    1  0.5640637E-004  0.6500000E+04  0.7818608E-02  0.7223770E-01
         52   -1    0    0    0    0  0.00000000000E+00  0.00000000000E+00  0.64930732323E+04  0.65000000000E+04  0.30000000000E+03 0.  1.
        -52   -1    0    0    0    0 -0.00000000000E+00 -0.00000000000E+00 -0.64930732323E+04  0.65000000000E+04  0.30000000000E+03 0. -1.
     100001    1    1    2    0    0  0.20175603959E+04 -0.98796763530E+03  0.60975995072E+04  0.65000000000E+04  0.15050000000E+03 0.  1.
     100001    1    1    2    0    0 -0.20175603959E+04  0.98796763530E+03 -0.60975995072E+04  0.65000000000E+04  0.15050000000E+03 0. -1.
</event>
<event>
 4    1  0.5640637E-004  0.6500000E+04  0.7818608E-02  0.7223770E-01
         52   -1    0    0    0    0  0.00000000000E+00  0.00000000000E+00  0.64930732323E+04  0.65000000000E+04  0.30000000000E+03 0.  1.
        -52   -1    0    0    0    0 -0.00000000000E+00 -0.00000000000E+00 -0.64930732323E+04  0.65000000000E+04  0.30000000000E+03 0. -1.
     100001    1    1    2    0    0 -0.20460983687E+04  0.16313410333E+04 -0.59480717588E+04  0.65000000000E+04  0.15050000000E+03 0. -1.
     100001    1    1    2    0    0  0.20460983687E+04 -0.16313410333E+04  0.59480717588E+04  0.65000000000E+04  0.15050000000E+03 0.  1.
</event>
<event>
 4    1  0.5640637E-004  0.6500000E+04  0.7818608E-02  0.7223770E-01
         52   -1    0    0    0    0  0.00000000000E+00  0.00000000000E+00  0.64930732323E+04  0.65000000000E+04  0.30000000000E+03 0.  1.
        -52   -1    0    0    0    0 -0.00000000000E+00 -0.00000000000E+00 -0.64930732323E+04  0.65000000000E+04  0.30000000000E+03 0. -1.
     100001    1    1    2    0    0 -0.21505130413E+04 -0.24254109771E+04  0.56320533557E+04  0.65000000000E+04  0.15050000000E+03 0.  1.
     100001    1    1    2    0    0  0.21505130413E+04  0.24254109771E+04 -0.56320533557E+04  0.65000000000E+04  0.15050000000E+03 0. -1.
</event>
<event>
 4    1  0.5640637E-004  0.6500000E+04  0.7818608E-02  0.7223770E-01
         52   -1    0    0    0    0  0.00000000000E+00  0.00000000000E+00  0.64930732323E+04  0.65000000000E+04  0.30000000000E+03 0.  1.
        -52   -1    0    0    0    0 -0.00000000000E+00 -0.00000000000E+00 -0.64930732323E+04  0.65000000000E+04  0.30000000000E+03 0.  1.
     100001    1    1    2    0    0  0.34600704851E+02 -0.49781567281E+02 -0.64979746334E+04  0.65000000000E+04  0.15050000000E+03 0.  1.
     100001    1    1    2    0    0 -0.34600704851E+02  0.49781567281E+02  0.64979746334E+04  0.65000000000E+04  0.15050000000E+03 0.  1.
</event>
<event>
 4    1  0.5640637E-004  0.6500000E+04  0.7818608E-02  0.7223770E-01
         52   -1    0    0    0    0  0.00000000000E+00  0.00000000000E+00  0.64930732323E+04  0.65000000000E+04  0.30000000000E+03 0. -1.
        -52   -1    0    0    0    0 -0.00000000000E+00 -0.00000000000E+00 -0.64930732323E+04  0.65000000000E+04  0.30000000000E+03 0.  1.
     100001    1    1    2    0    0 -0.99607618171E+03 -0.33285039498E+04 -0.54914700624E+04  0.65000000000E+04  0.15050000000E+03 0.  1.
     100001    1    1    2    0    0  0.99607618171E+03  0.33285039498E+04  0.54914700624E+04  0.65000000000E+04  0.15050000000E+03 0. -1.
</event>
<event>
 4    1  0.5640637E-004  0.6500000E+04  0.7818608E-02  0.7223770E-01
         52   -1    0    0    0    0  0.00000000000E+00  0.00000000000E+00  0.64930732323E+04  0.65000000000E+04  0.30000000000E+03 0. -1.
        -52   -1    0    0    0    0 -0.00000000000E+00 -0.00000000000E+00 -0.64930732323E+04  0.65000000000E+04  0.30000000000E+03 0.  1.
     100001    1    1    2    0    0 -0.73415146901E+03  0.35891358571E+03  0.64466698697E+04  0.65000000000E+04  0.15050000000E+03 0. -1.
     100001    1    1    2    0    0  0.73415146901E+03 -0.35891358571E+03 -0.64466698697E+04  0.65000000000E+04  0.15050000000E+03 0.  1.
</event>
<event>
 4    1  0.5640637E-004  0.6500000E+04  0.7818608E-02  0.7223770E-01
         52   -1    0    0    0    0  0.00000000000E+00  0.00000000000E+00  0.64930732323E+04  0.65000000000E+04  0.30000000000E+03 0.  1.
        -52   -1    0    0    0    0 -0.00000000000E+00 -0.00000000000E+00 -0.64930732323E+04  0.65000000000E+04  0.30000000000E+03 0. -1.
     100001    1    1    2    0    0  0.43829686260E+03 -0.74432915472E+02  0.64830321109E+04  0.65000000000E+04  0.15050000000E+03 0.  1.
     100001    1    1    2    0    0 -0.43829686260E+03  0.74432915472E+02 -0.64830321109E+04  0.65000000000E+04  0.15050000000E+03 0. -1.
</event>
<event>
 4    1  0.5640637E-004  0.6500000E+04  0.7818608E-02  0.7223770E-01
         52   -1    0    0    0    0  0.00000000000E+00  0.00000000000E+00  0.64930732323E+04  0.65000000000E+04  0.30000000000E+03 0. -1.
        -52   -1    0    0    0    0 -0.00000000000E+00 -0.00000000000E+00 -0.64930732323E+04  0.65000000000E+04  0.30000000000E+03 0.  1.
     100001    1    1    2    0    0  0.15226261411E+04 -0.32232932366E+04 -0.54331703540E+04  0.65000000000E+04  0.15050000000E+03 0.  1.
     100001    1    1    2    0    0 -0.15226261411E+04  0.32232932366E+04  0.54331703540E+04  0.65000000000E+04  0.15050000000E+03 0. -1.
</event>
<event>
 4    1  0.5640637E-004  0.6500000E+04  0.7818608E-02  0.7223770E-01
         52   -1    0    0    0    0  0.00000000000E+00  0.00000000000E+00  0.64930732323E+04  0.65000000000E+04  0.30000000000E+03 0. -1.
        -52   -1    0    0    0    0 -0.00000000000E+00 -0.00000000000E+00 -0.64930732323E+04  0.65000000000E+04  0.30000000000E+03 0.  1.
     100001    1    1    2    0    0  0.46843413291E+03 -0.41689058525E+03 -0.64679302295E+04  0.65000000000E+04  0.15050000000E+03 0.  1.
     100001    1    1    2    0    0 -0.46843413291E+03  0.41689058525E+03  0.64679302295E+04  0.65000000000E+04  0.15050000000E+03 0. -1.
</event>
<event>
 4    1  0.5640637E-004  0.6500000E+04  0.7818608E-02  0.7223770E-01
         52   -1    0    0    0    0  0.00000000000E+00  0.00000000000E+00  0.64930732323E+04  0.65000000000E+04  0.30000000000E+03 0. -1.
        -52   -1    0    0    0    0 -0.00000000000E+00 -0.00000000000E+00 -0.64930732323E+04  0.65000000000E+04  0.30000000000E+03 0. -1.
     100001    1    1    2    0    0 -0.11176436129E+03  0.17582140062E+03  0.64949168827E+04  0.65000000000E+04  0.15050000000E+03 0. -1.
     100001    1    1    2    0    0  0.11176436129E+03 -0.17582140062E+03 -0.64949168827E+04  0.65000000000E+04  0.15050000000E+03 0. -1.
</event>
<event>
 4    1  0.5640637E-004  0.6500000E+04  0.7818608E-02  0.7223770E-01
         52   -1    0    0    0    0  0.00000000000E+00  0.00000000000E+00  0.64930732323E+04  0.65000000000E+04  0.30000000000E+03 0. -1.
        -52   -1    0    0    0    0 -0.00000000000E+00 -0.00000000000E+00 -0.64930732323E+04  0.65000000000E+04  0.30000000000E+03 0.  1.
     100001    1    1    2    0    0  0.19734789129E+04 -0.35924124182E+04 -0.50425493303E+04  0.65000000000E+04  0.15050000000E+03 0.  1.
     100001    1    1    2    0    0 -0.19734789129E+04  0.35924124182E+04  0.50425493303E+04  0.65000000000E+04  0.15050000000E+03 0. -1.
</event>
<event>
 4    1  0.5640637E-004  0.6500000E+04  0.7818608E-02  0.7223770E-01
         52   -1    0    0    0    0  0.00000000000E+00  0.00000000000E+00  0.64930732323E+04  0.65000000000E+04  0.30000000000E+03 0.  1.
        -52   -1    0    0    0    0 -0.00000000000E+00 -0.00000000000E+00 -0.64930732323E+04  0.65000000000E+04  0.30000000000E+03 0.  1.
     100001    1    1    2    0    0  0.35594858231E+02  0.94442678714E+03  0.64291633048E+04  0.65000000000E+04  0.15050000000E+03 0.  1.
     100001    1    1    2    0    0 -0.35594858231E+02 -0.94442678714E+03 -0.64291633048E+04  0.65000000000E+04  0.15050000000E+03 0.  1.
</event>
<event>
 4    1  0.5640637E-004  0.6500000E+04  0.7818608E-02  0.7223770E-01
         52   -1    0    0    0    0  0.00000000000E+00  0.00000000000E+00  0.64930732323E+04  0.65000000000E+04  0.30000000000E+03 0. -1.
        -52   -1    0    0    0    0 -0.00000000000E+00 -0.00000000000E+00 -0.64930732323E+04  0.65000000000E+04  0.30000000000E+03 0. -1.
     100001    1    1    2    0    0 -0.11715104319E+02 -0.76167172048E+02 -0.64978004793E+04  0.65000000000E+04  0.15050000000E+03 0. -1.
     100001    1    1    2    0    0  0.11715104319E+02  0.76167172048E+02  0.64978004793E+04  0.65000000000E+04  0.15050000000E+03 0. -1.
</event>
<event>
 4    1  0.5640637E-004  0.6500000E+04  0.7818608E-02  0.7223770E-01
         52   -1    0    0    0    0  0.00000000000E+00  0.00000000000E+00  0.64930732323E+04  0.65000000000E+04  0.30000000000E+03 0. -1.
        -52   -1    0    0    0    0 -0.00000000000E+00 -0.00000000000E+00 -0.64930732323E+04  0.65000000000E+04  0.30000000000E+03 0.  1.
     100001    1    1    2    0    0  0.24116058247E+03 -0.43502936020E+03 -0.64791929111E+04  0.65000000000E+04  0.15050000000E+03 0.  1.
     100001    1    1    2    0    0 -0.24116058247E+03  0.43502936020E+03  0.64791929111E+04  0.65000000000E+04  0.15050000000E+03 0. -1.
</event>
<event>
 4    1  0.5640637E-004  0.6500000E+04  0.7818608E-02  0.7223770E-01
         52   -1    0    0    0    0  0.00000000000E+00  0.00000000000E+00  0.64930732323E+04  0.65000000000E+04  0.30000000000E+03 0.  1.
        -52   -1    0    0    0    0 -0.00000000000E+00 -0.00000000000E+00 -0.64930732323E+04  0.65000000000E+04  0.30000000000E+03 0.  1.
     100001    1    1    2    0    0  0.38048424628E+03 -0.41044543153E+03 -0.64741112159E+04  0.65000000000E+04  0.15050000000E+03 0.  1.
     100001    1    1    2    0    0 -0.38048424628E+03  0.41044543153E+03  0.64741112159E+04  0.65000000000E+04  0.15050000000E+03 0.  1.
</event>
<event>
 4    1  0.5640637E-004  0.6500000E+04  0.7818608E-02  0.7223770E-01
         52   -1    0    0    0    0  0.00000000000E+00  0.00000000000E+00  0.64930732323E+04  0.65000000000E+04  0.30000000000E+03 0. -1.
        -52   -1    0    0    0    0 -0.00000000000E+00 -0.00000000000E+00 -0.64930732323E+04  0.65000000000E+04  0.30000000000E+03 0.  1.
     100001    1    1    2    0    0  0.92354932742E+03  0.16566601743E+04 -0.62152943178E+04  0.65000000000E+04  0.15050000000E+03 0.  1.
     100001    1    1    2    0    0 -0.92354932742E+03 -0.16566601743E+04  0.62152943178E+04  0.65000000000E+04  0.15050000000E+03 0. -1.
</event>
<event>
 4    1  0.5640637E-004  0.6500000E+04  0.7818608E-02  0.7223770E-01
         52   -1    0    0    0    0  0.00000000000E+00  0.00000000000E+00  0.64930732323E+04  0.65000000000E+04  0.30000000000E+03 0. -1.
        -52   -1    0    0    0    0 -0.00000000000E+00 -0.00000000000E+00 -0.64930732323E+04  0.65000000000E+04  0.30000000000E+03 0.  1.
     100001    1    1    2    0    0  0.39706803064E+03  0.26365750106E+04  0.59260576223E+04  0.65000000000E+04  0.15050000000E+03 0. -1.
     100001    1    1    2    0    0 -0.39706803064E+03 -0.26365750106E+04 -0.59260576223E+04  0.65000000000E+04  0.15050000000E+03 0.  1.
</event>
<event>
 4    1  0.5640637E-004  0.6500000E+04  0.7818608E-02  0.7223770E-01
         52   -1    0    0    0    0  0.00000000000E+00  0.00000000000E+00  0.64930732323E+04  0.65000000000E+04  0.30000000000E+03 0.  1.
        -52   -1    0    0    0    0 -0.00000000000E+00 -0.00000000000E+00 -0.64930732323E+04  0.65000000000E+04  0.30000000000E+03 0. -1.
     100001    1    1    2    0    0 -0.27925350313E+04 -0.13311194106E+04 -0.57146495049E+04  0.65000000000E+04  0.15050000000E+03 0. -1.
     100001    1    1    2    0    0  0.27925350313E+04  0.13311194106E+04  0.57146495049E+04  0.65000000000E+04  0.15050000000E+03 0.  1.
</event>
<event>
 4    1  0.5640637E-004  0.6500000E+04  0.7818608E-02  0.7223770E-01
         52   -1    0    0    0    0  0.00000000000E+00  0.00000000000E+00  0.64930732323E+04  0.65000000000E+04  0.30000000000E+03 0.  1.
        -52   -1    0    0    0    0 -0.00000000000E+00 -0.00000000000E+00 -0.64930732323E+04  0.65000000000E+04  0.30000000000E+03 0. -1.
     100001    1    1    2    0    0 -0.37231912242E+03 -0.73949788917E+02 -0.64871611395E+04  0.65000000000E+04  0.15050000000E+03 0. -1.
     100001    1    1    2    0    0  0.37231912242E+03  0.73949788917E+02  0.64871611395E+04  0.65000000000E+04  0.15050000000E+03 0.  1.
</event>
<event>
 4    1  0.5640637E-004  0.6500000E+04  0.7818608E-02  0.7223770E-01
         52   -1    0    0    0    0  0.00000000000E+00  0.00000000000E+00  0.64930732323E+04  0.65000000000E+04  0.30000000000E+03 0.  1.
        -52   -1    0    0    0    0 -0.00000000000E+00 -0.00000000000E+00 -0.64930732323E+04  0.65000000000E+04  0.30000000000E+03 0. -1.
     100001    1    1    2    0    0 -0.12902723050E+04 -0.15211497016E+03  0.63670564757E+04  0.65000000000E+04  0.15050000000E+03 0.  1.
     100001    1    1    2    0    0  0.12902723050E+04  0.15211497016E+03 -0.63670564757E+04  0.65000000000E+04  0.15050000000E+03 0. -1.
</event>
<event>
 4    1  0.5640637E-004  0.6500000E+04  0.7818608E-02  0.7223770E-01
         52   -1    0    0    0    0  0.00000000000E+00  0.00000000000E+00  0.64930732323E+04  0.65000000000E+04  0.30000000000E+03 0.  1.
        -52   -1    0    0    0    0 -0.00000000000E+00 -0.00000000000E+00 -0.64930732323E+04  0.65000000000E+04  0.30000000000E+03 0. -1.
     100001    1    1    2    0    0  0.24058030362E+04  0.10457736658E+04  0.59452349778E+04  0.65000000000E+04  0.15050000000E+03 0.  1.
     100001    1    1    2    0    0 -0.24058030362E+04 -0.10457736658E+04 -0.59452349778E+04  0.65000000000E+04  0.15050000000E+03 0. -1.
</event>
<event>
 4    1  0.5640637E-004  0.6500000E+04  0.7818608E-02  0.7223770E-01
         52   -1    0    0    0    0  0.00000000000E+00  0.00000000000E+00  0.64930732323E+04  0.65000000000E+04  0.30000000000E+03 0.  1.
        -52   -1    0    0    0    0 -0.00000000000E+00 -0.00000000000E+00 -0.64930732323E+04  0.65000000000E+04  0.30000000000E+03 0. -1.
     100001    1    1    2    0    0 -0.53610268716E+03  0.65546882402E+03 -0.64428490809E+04  0.65000000000E+04  0.15050000000E+03 0. -1.
     100001    1    1    2    0    0  0.53610268716E+03 -0.65546882402E+03  0.64428490809E+04  0.65000000000E+04  0.15050000000E+03 0.  1.
</event>
<event>
 4    1  0.5640637E-004  0.6500000E+04  0.7818608E-02  0.7223770E-01
         52   -1    0    0    0    0  0.00000000000E+00  0.00000000000E+00  0.64930732323E+04  0.65000000000E+04  0.30000000000E+03 0. -1.
        -52   -1    0    0    0    0 -0.00000000000E+00 -0.00000000000E+00 -0.64930732323E+04  0.65000000000E+04  0.30000000000E+03 0.  1.
     100001    1    1    2    0    0  0.59146628417E+04  0.25742024635E+04 -0.78587206131E+03  0.65000000000E+04  0.15050000000E+03 0. -1.
     100001    1    1    2    0    0 -0.59146628417E+04 -0.25742024635E+04  0.78587206131E+03  0.65000000000E+04  0.15050000000E+03 0.  1.
</event>
<event>
 4    1  0.5640637E-004  0.6500000E+04  0.7818608E-02  0.7223770E-01
         52   -1    0    0    0    0  0.00000000000E+00  0.00000000000E+00  0.64930732323E+04  0.65000000000E+04  0.30000000000E+03 0.  1.
        -52   -1    0    0    0    0 -0.00000000000E+00 -0.00000000000E+00 -0.64930732323E+04  0.65000000000E+04  0.30000000000E+03 0.  1.
     100001    1    1    2    0    0 -0.31472058102E+02 -0.35733600479E+03 -0.64883488068E+04  0.65000000000E+04  0.15050000000E+03 0.  1.
     100001    1    1    2    0    0  0.31472058102E+02  0.35733600479E+03  0.64883488068E+04  0.65000000000E+04  0.15050000000E+03 0.  1.
</event>
<event>
 4    1  0.5640637E-004  0.6500000E+04  0.7818608E-02  0.7223770E-01
         52   -1    0    0    0    0  0.00000000000E+00  0.00000000000E+00  0.64930732323E+04  0.65000000000E+04  0.30000000000E+03 0.  1.
        -52   -1    0    0    0    0 -0.00000000000E+00 -0.00000000000E+00 -0.64930732323E+04  0.65000000000E+04  0.30000000000E+03 0. -1.
     100001    1    1    2    0    0  0.38603993175E+03 -0.54037070189E+03  0.64642340943E+04  0.65000000000E+04  0.15050000000E+03 0.  1.
     100001    1    1    2    0    0 -0.38603993175E+03  0.54037070189E+03 -0.64642340943E+04  0.65000000000E+04  0.15050000000E+03 0. -1.
</event>
<event>
 4    1  0.5640637E-004  0.6500000E+04  0.7818608E-02  0.7223770E-01
         52   -1    0    0    0    0  0.00000000000E+00  0.00000000000E+00  0.64930732323E+04  0.65000000000E+04  0.30000000000E+03 0.  1.
        -52   -1    0    0    0    0 -0.00000000000E+00 -0.00000000000E+00 -0.64930732323E+04  0.65000000000E+04  0.30000000000E+03 0. -1.
     100001    1    1    2    0    0 -0.61927475447E+03  0.99789067394E+03 -0.63912489180E+04  0.65000000000E+04  0.15050000000E+03 0. -1.
     100001    1    1    2    0    0  0.61927475447E+03 -0.99789067394E+03  0.63912489180E+04  0.65000000000E+04  0.15050000000E+03 0.  1.
</event>
<event>
 4    1  0.5640637E-004  0.6500000E+04  0.7818608E-02  0.7223770E-01
         52   -1    0    0    0    0  0.00000000000E+00  0.00000000000E+00  0.64930732323E+04  0.65000000000E+04  0.30000000000E+03 0. -1.
        -52   -1    0    0    0    0 -0.00000000000E+00 -0.00000000000E+00 -0.64930732323E+04  0.65000000000E+04  0.30000000000E+03 0. -1.
     100001    1    1    2    0    0 -0.34136261166E+03 -0.88850721525E+02  0.64886768194E+04  0.65000000000E+04  0.15050000000E+03 0. -1.
     100001    1    1    2    0    0  0.34136261166E+03  0.88850721525E+02 -0.64886768194E+04  0.65000000000E+04  0.15050000000E+03 0. -1.
</event>
<event>
 4    1  0.5640637E-004  0.6500000E+04  0.7818608E-02  0.7223770E-01
         52   -1    0    0    0    0  0.00000000000E+00  0.00000000000E+00  0.64930732323E+04  0.65000000000E+04  0.30000000000E+03 0. -1.
        -52   -1    0    0    0    0 -0.00000000000E+00 -0.00000000000E+00 -0.64930732323E+04  0.65000000000E+04  0.30000000000E+03 0.  1.
     100001    1    1    2    0    0  0.55502186745E+03  0.92265424541E+02  0.64738541510E+04  0.65000000000E+04  0.15050000000E+03 0. -1.
     100001    1    1    2    0    0 -0.55502186745E+03 -0.92265424541E+02 -0.64738541510E+04  0.65000000000E+04  0.15050000000E+03 0.  1.
</event>
<event>
 4    1  0.5640637E-004  0.6500000E+04  0.7818608E-02  0.7223770E-01
         52   -1    0    0    0    0  0.00000000000E+00  0.00000000000E+00  0.64930732323E+04  0.65000000000E+04  0.30000000000E+03 0.  1.
        -52   -1    0    0    0    0 -0.00000000000E+00 -0.00000000000E+00 -0.64930732323E+04  0.65000000000E+04  0.30000000000E+03 0. -1.
     100001    1    1    2    0    0 -0.43785532330E+04  0.41208818474E+04 -0.24645393354E+04  0.65000000000E+04  0.15050000000E+03 0. -1.
     100001    1    1    2    0    0  0.43785532330E+04 -0.41208818474E+04  0.24645393354E+04  0.65000000000E+04  0.15050000000E+03 0.  1.
</event>
<event>
 4    1  0.5640637E-004  0.6500000E+04  0.7818608E-02  0.7223770E-01
         52   -1    0    0    0    0  0.00000000000E+00  0.00000000000E+00  0.64930732323E+04  0.65000000000E+04  0.30000000000E+03 0.  1.
        -52   -1    0    0    0    0 -0.00000000000E+00 -0.00000000000E+00 -0.64930732323E+04  0.65000000000E+04  0.30000000000E+03 0. -1.
     100001    1    1    2    0    0 -0.41511830581E+03 -0.25388950696E+04  0.59673309250E+04  0.65000000000E+04  0.15050000000E+03 0.  1.
     100001    1    1    2    0    0  0.41511830581E+03  0.25388950696E+04 -0.59673309250E+04  0.65000000000E+04  0.15050000000E+03 0. -1.
</event>
<event>
 4    1  0.5640637E-004  0.6500000E+04  0.7818608E-02  0.7223770E-01
         52   -1    0    0    0    0  0.00000000000E+00  0.00000000000E+00  0.64930732323E+04  0.65000000000E+04  0.30000000000E+03 0. -1.
        -52   -1    0    0    0    0 -0.00000000000E+00 -0.00000000000E+00 -0.64930732323E+04  0.65000000000E+04  0.30000000000E+03 0.  1.
     100001    1    1    2    0    0 -0.50009028285E+03 -0.36487624083E+04  0.53538577070E+04  0.65000000000E+04  0.15050000000E+03 0. -1.
     100001    1    1    2    0    0  0.50009028285E+03  0.36487624083E+04 -0.53538577070E+04  0.65000000000E+04  0.15050000000E+03 0.  1.
</event>
<event>
 4    1  0.5640637E-004  0.6500000E+04  0.7818608E-02  0.7223770E-01
         52   -1    0    0    0    0  0.00000000000E+00  0.00000000000E+00  0.64930732323E+04  0.65000000000E+04  0.30000000000E+03 0. -1.
        -52   -1    0    0    0    0 -0.00000000000E+00 -0.00000000000E+00 -0.64930732323E+04  0.65000000000E+04  0.30000000000E+03 0.  1.
     100001    1    1    2    0    0  0.14689409263E+04  0.98268984671E+03 -0.62533097613E+04  0.65000000000E+04  0.15050000000E+03 0.  1.
     100001    1    1    2    0    0 -0.14689409263E+04 -0.98268984671E+03  0.62533097613E+04  0.65000000000E+04  0.15050000000E+03 0. -1.
</event>
<event>
 4    1  0.5640637E-004  0.6500000E+04  0.7818608E-02  0.7223770E-01
         52   -1    0    0    0    0  0.00000000000E+00  0.00000000000E+00  0.64930732323E+04  0.65000000000E+04  0.30000000000E+03 0. -1.
        -52   -1    0    0    0    0 -0.00000000000E+00 -0.00000000000E+00 -0.64930732323E+04  0.65000000000E+04  0.30000000000E+03 0.  1.
     100001    1    1    2    0    0 -0.24018986667E+04  0.32255746668E+04 -0.51043021672E+04  0.65000000000E+04  0.15050000000E+03 0.  1.
     100001    1    1    2    0    0  0.24018986667E+04 -0.32255746668E+04  0.51043021672E+04  0.65000000000E+04  0.15050000000E+03 0. -1.
</event>
<event>
 4    1  0.5640637E-004  0.6500000E+04  0.7818608E-02  0.7223770E-01
         52   -1    0    0    0    0  0.00000000000E+00  0.00000000000E+00  0.64930732323E+04  0.65000000000E+04  0.30000000000E+03 0.  1.
        -52   -1    0    0    0    0 -0.00000000000E+00 -0.00000000000E+00 -0.64930732323E+04  0.65000000000E+04  0.30000000000E+03 0. -1.
     100001    1    1    2    0    0  0.21176519546E+04 -0.16251399804E+04  0.59246788937E+04  0.65000000000E+04  0.15050000000E+03 0.  1.
     100001    1    1    2    0    0 -0.21176519546E+04  0.16251399804E+04 -0.59246788937E+04  0.65000000000E+04  0.15050000000E+03 0. -1.
</event>
<event>
 4    1  0.5640637E-004  0.6500000E+04  0.7818608E-02  0.7223770E-01
         52   -1    0    0    0    0  0.00000000000E+00  0.00000000000E+00  0.64930732323E+04  0.65000000000E+04  0.30000000000E+03 0.  1.
        -52   -1    0    0    0    0 -0.00000000000E+00 -0.00000000000E+00 -0.64930732323E+04  0.65000000000E+04  0.30000000000E+03 0. -1.
     100001    1    1    2    0    0 -0.13675737218E+04  0.23313412640E+04 -0.59094788075E+04  0.65000000000E+04  0.15050000000E+03 0. -1.
     100001    1    1    2    0    0  0.13675737218E+04 -0.23313412640E+04  0.59094788075E+04  0.65000000000E+04  0.15050000000E+03 0.  1.
</event>
<event>
 4    1  0.5640637E-004  0.6500000E+04  0.7818608E-02  0.7223770E-01
         52   -1    0    0    0    0  0.00000000000E+00  0.00000000000E+00  0.64930732323E+04  0.65000000000E+04  0.30000000000E+03 0. -1.
        -52   -1    0    0    0    0 -0.00000000000E+00 -0.00000000000E+00 -0.64930732323E+04  0.65000000000E+04  0.30000000000E+03 0.  1.
     100001    1    1    2    0    0 -0.53780048860E+04  0.35616180934E+04 -0.78694965096E+03  0.65000000000E+04  0.15050000000E+03 0.  1.
     100001    1    1    2    0    0  0.53780048860E+04 -0.35616180934E+04  0.78694965096E+03  0.65000000000E+04  0.15050000000E+03 0. -1.
</event>
<event>
 4    1  0.5640637E-004  0.6500000E+04  0.7818608E-02  0.7223770E-01
         52   -1    0    0    0    0  0.00000000000E+00  0.00000000000E+00  0.64930732323E+04  0.65000000000E+04  0.30000000000E+03 0. -1.
        -52   -1    0    0    0    0 -0.00000000000E+00 -0.00000000000E+00 -0.64930732323E+04  0.65000000000E+04  0.30000000000E+03 0.  1.
     100001    1    1    2    0    0  0.55198120076E+03  0.14384294093E+04  0.63129697717E+04  0.65000000000E+04  0.15050000000E+03 0. -1.
     100001    1    1    2    0    0 -0.55198120076E+03 -0.14384294093E+04 -0.63129697717E+04  0.65000000000E+04  0.15050000000E+03 0.  1.
</event>
<event>
 4    1  0.5640637E-004  0.6500000E+04  0.7818608E-02  0.7223770E-01
         52   -1    0    0    0    0  0.00000000000E+00  0.00000000000E+00  0.64930732323E+04  0.65000000000E+04  0.30000000000E+03 0. -1.
        -52   -1    0    0    0    0 -0.00000000000E+00 -0.00000000000E+00 -0.64930732323E+04  0.65000000000E+04  0.30000000000E+03 0.  1.
     100001    1    1    2    0    0  0.62015097133E+03 -0.70852881458E+03 -0.64296772424E+04  0.65000000000E+04  0.15050000000E+03 0.  1.
     100001    1    1    2    0    0 -0.62015097133E+03  0.70852881458E+03  0.64296772424E+04  0.65000000000E+04  0.15050000000E+03 0. -1.
</event>
<event>
 4    1  0.5640637E-004  0.6500000E+04  0.7818608E-02  0.7223770E-01
         52   -1    0    0    0    0  0.00000000000E+00  0.00000000000E+00  0.64930732323E+04  0.65000000000E+04  0.30000000000E+03 0. -1.
        -52   -1    0    0    0    0 -0.00000000000E+00 -0.00000000000E+00 -0.64930732323E+04  0.65000000000E+04  0.30000000000E+03 0.  1.
     100001    1    1    2    0    0 -0.12285594110E+04 -0.38753798569E+03  0.63692861322E+04  0.65000000000E+04  0.15050000000E+03 0. -1.
     100001    1    1    2    0    0  0.12285594110E+04  0.38753798569E+03 -0.63692861322E+04  0.65000000000E+04  0.15050000000E+03 0.  1.
</event>
<event>
 4    1  0.5640637E-004  0.6500000E+04  0.7818608E-02  0.7223770E-01
         52   -1    0    0    0    0  0.00000000000E+00  0.00000000000E+00  0.64930732323E+04  0.65000000000E+04  0.30000000000E+03 0.  1.
        -52   -1    0    0    0    0 -0.00000000000E+00 -0.00000000000E+00 -0.64930732323E+04  0.65000000000E+04  0.30000000000E+03 0. -1.
     100001    1    1    2    0    0 -0.82531811237E+03 -0.30625724413E+03 -0.64383543133E+04  0.65000000000E+04  0.15050000000E+03 0. -1.
     100001    1    1    2    0    0  0.82531811237E+03  0.30625724413E+03  0.64383543133E+04  0.65000000000E+04  0.15050000000E+03 0.  1.
</event>
<event>
 4    1  0.5640637E-004  0.6500000E+04  0.7818608E-02  0.7223770E-01
         52   -1    0    0    0    0  0.00000000000E+00  0.00000000000E+00  0.64930732323E+04  0.65000000000E+04  0.30000000000E+03 0.  1.
        -52   -1    0    0    0    0 -0.00000000000E+00 -0.00000000000E+00 -0.64930732323E+04  0.65000000000E+04  0.30000000000E+03 0.  1.
     100001    1    1    2    0    0 -0.27027338738E+03 -0.24631404805E+02  0.64925877229E+04  0.65000000000E+04  0.15050000000E+03 0.  1.
     100001    1    1    2    0    0  0.27027338738E+03  0.24631404805E+02 -0.64925877229E+04  0.65000000000E+04  0.15050000000E+03 0.  1.
</event>
<event>
 4    1  0.5640637E-004  0.6500000E+04  0.7818608E-02  0.7223770E-01
         52   -1    0    0    0    0  0.00000000000E+00  0.00000000000E+00  0.64930732323E+04  0.65000000000E+04  0.30000000000E+03 0.  1.
        -52   -1    0    0    0    0 -0.00000000000E+00 -0.00000000000E+00 -0.64930732323E+04  0.65000000000E+04  0.30000000000E+03 0. -1.
     100001    1    1    2    0    0 -0.39730797688E+03 -0.96738322641E+03 -0.64135532909E+04  0.65000000000E+04  0.15050000000E+03 0. -1.
     100001    1    1    2    0    0  0.39730797688E+03  0.96738322641E+03  0.64135532909E+04  0.65000000000E+04  0.15050000000E+03 0.  1.
</event>
<event>
 4    1  0.5640637E-004  0.6500000E+04  0.7818608E-02  0.7223770E-01
         52   -1    0    0    0    0  0.00000000000E+00  0.00000000000E+00  0.64930732323E+04  0.65000000000E+04  0.30000000000E+03 0.  1.
        -52   -1    0    0    0    0 -0.00000000000E+00 -0.00000000000E+00 -0.64930732323E+04  0.65000000000E+04  0.30000000000E+03 0. -1.
     100001    1    1    2    0    0 -0.20738504689E+04 -0.24726969810E+04 -0.56402361318E+04  0.65000000000E+04  0.15050000000E+03 0. -1.
     100001    1    1    2    0    0  0.20738504689E+04  0.24726969810E+04  0.56402361318E+04  0.65000000000E+04  0.15050000000E+03 0.  1.
</event>
<event>
 4    1  0.5640637E-004  0.6500000E+04  0.7818608E-02  0.7223770E-01
         52   -1    0    0    0    0  0.00000000000E+00  0.00000000000E+00  0.64930732323E+04  0.65000000000E+04  0.30000000000E+03 0. -1.
        -52   -1    0    0    0    0 -0.00000000000E+00 -0.00000000000E+00 -0.64930732323E+04  0.65000000000E+04  0.30000000000E+03 0. -1.
     100001    1    1    2    0    0 -0.13670878163E+03 -0.44285465508E+03  0.64817081247E+04  0.65000000000E+04  0.15050000000E+03 0. -1.
     100001    1    1    2    0    0  0.13670878163E+03  0.44285465508E+03 -0.64817081247E+04  0.65000000000E+04  0.15050000000E+03 0. -1.
</event>
<event>
 4    1  0.5640637E-004  0.6500000E+04  0.7818608E-02  0.7223770E-01
         52   -1    0    0    0    0  0.00000000000E+00  0.00000000000E+00  0.64930732323E+04  0.65000000000E+04  0.30000000000E+03 0.  1.
        -52   -1    0    0    0    0 -0.00000000000E+00 -0.00000000000E+00 -0.64930732323E+04  0.65000000000E+04  0.30000000000E+03 0. -1.
     100001    1    1    2    0    0 -0.49811101607E+03 -0.10738015272E+04  0.63895371856E+04  0.65000000000E+04  0.15050000000E+03 0.  1.
     100001    1    1    2    0    0  0.49811101607E+03  0.10738015272E+04 -0.63895371856E+04  0.65000000000E+04  0.15050000000E+03 0. -1.
</event>
<event>
 4    1  0.5640637E-004  0.6500000E+04  0.7818608E-02  0.7223770E-01
         52   -1    0    0    0    0  0.00000000000E+00  0.00000000000E+00  0.64930732323E+04  0.65000000000E+04  0.30000000000E+03 0.  1.
        -52   -1    0    0    0    0 -0.00000000000E+00 -0.00000000000E+00 -0.64930732323E+04  0.65000000000E+04  0.30000000000E+03 0. -1.
     100001    1    1    2    0    0 -0.58965581071E+03 -0.39666815222E+04  0.51132273054E+04  0.65000000000E+04  0.15050000000E+03 0.  1.
     100001    1    1    2    0    0  0.58965581071E+03  0.39666815222E+04 -0.51132273054E+04  0.65000000000E+04  0.15050000000E+03 0. -1.
</event>
<event>
 4    1  0.5640637E-004  0.6500000E+04  0.7818608E-02  0.7223770E-01
         52   -1    0    0    0    0  0.00000000000E+00  0.00000000000E+00  0.64930732323E+04  0.65000000000E+04  0.30000000000E+03 0.  1.
        -52   -1    0    0    0    0 -0.00000000000E+00 -0.00000000000E+00 -0.64930732323E+04  0.65000000000E+04  0.30000000000E+03 0. -1.
     100001    1    1    2    0    0 -0.14894995123E+04  0.40069754219E+03 -0.63125416777E+04  0.65000000000E+04  0.15050000000E+03 0. -1.
     100001    1    1    2    0    0  0.14894995123E+04 -0.40069754219E+03  0.63125416777E+04  0.65000000000E+04  0.15050000000E+03 0.  1.
</event>
<event>
 4    1  0.5640637E-004  0.6500000E+04  0.7818608E-02  0.7223770E-01
         52   -1    0    0    0    0  0.00000000000E+00  0.00000000000E+00  0.64930732323E+04  0.65000000000E+04  0.30000000000E+03 0.  1.
        -52   -1    0    0    0    0 -0.00000000000E+00 -0.00000000000E+00 -0.64930732323E+04  0.65000000000E+04  0.30000000000E+03 0.  1.
     100001    1    1    2    0    0 -0.61630726868E+01  0.80525971562E+03  0.64481678450E+04  0.65000000000E+04  0.15050000000E+03 0.  1.
     100001    1    1    2    0    0  0.61630726868E+01 -0.80525971562E+03 -0.64481678450E+04  0.65000000000E+04  0.15050000000E+03 0.  1.
</event>
<event>
 4    1  0.5640637E-004  0.6500000E+04  0.7818608E-02  0.7223770E-01
         52   -1    0    0    0    0  0.00000000000E+00  0.00000000000E+00  0.64930732323E+04  0.65000000000E+04  0.30000000000E+03 0. -1.
        -52   -1    0    0    0    0 -0.00000000000E+00 -0.00000000000E+00 -0.64930732323E+04  0.65000000000E+04  0.30000000000E+03 0.  1.
     100001    1    1    2    0    0 -0.47184845178E+03  0.16862919283E+04  0.62578852915E+04  0.65000000000E+04  0.15050000000E+03 0. -1.
     100001    1    1    2    0    0  0.47184845178E+03 -0.16862919283E+04 -0.62578852915E+04  0.65000000000E+04  0.15050000000E+03 0.  1.
</event>
<event>
 4    1  0.5640637E-004  0.6500000E+04  0.7818608E-02  0.7223770E-01
         52   -1    0    0    0    0  0.00000000000E+00  0.00000000000E+00  0.64930732323E+04  0.65000000000E+04  0.30000000000E+03 0.  1.
        -52   -1    0    0    0    0 -0.00000000000E+00 -0.00000000000E+00 -0.64930732323E+04  0.65000000000E+04  0.30000000000E+03 0.  1.
     100001    1    1    2    0    0 -0.12423687232E+03 -0.74578886501E+03  0.64541237917E+04  0.65000000000E+04  0.15050000000E+03 0.  1.
     100001    1    1    2    0    0  0.12423687232E+03  0.74578886501E+03 -0.64541237917E+04  0.65000000000E+04  0.15050000000E+03 0.  1.
</event>
<event>
 4    1  0.5640637E-004  0.6500000E+04  0.7818608E-02  0.7223770E-01
         52   -1    0    0    0    0  0.00000000000E+00  0.00000000000E+00  0.64930732323E+04  0.65000000000E+04  0.30000000000E+03 0.  1.
        -52   -1    0    0    0    0 -0.00000000000E+00 -0.00000000000E+00 -0.64930732323E+04  0.65000000000E+04  0.30000000000E+03 0. -1.
     100001    1    1    2    0    0  0.24897877920E+04 -0.26664896266E+04 -0.53775588860E+04  0.65000000000E+04  0.15050000000E+03 0. -1.
     100001    1    1    2    0    0 -0.24897877920E+04  0.26664896266E+04  0.53775588860E+04  0.65000000000E+04  0.15050000000E+03 0.  1.
</event>
<event>
 4    1  0.5640637E-004  0.6500000E+04  0.7818608E-02  0.7223770E-01
         52   -1    0    0    0    0  0.00000000000E+00  0.00000000000E+00  0.64930732323E+04  0.65000000000E+04  0.30000000000E+03 0. -1.
        -52   -1    0    0    0    0 -0.00000000000E+00 -0.00000000000E+00 -0.64930732323E+04  0.65000000000E+04  0.30000000000E+03 0.  1.
     100001    1    1    2    0    0  0.28087435747E+04 -0.18550981719E+04 -0.55584998025E+04  0.65000000000E+04  0.15050000000E+03 0.  1.
     100001    1    1    2    0    0 -0.28087435747E+04  0.18550981719E+04  0.55584998025E+04  0.65000000000E+04  0.15050000000E+03 0. -1.
</event>
<event>
 4    1  0.5640637E-004  0.6500000E+04  0.7818608E-02  0.7223770E-01
         52   -1    0    0    0    0  0.00000000000E+00  0.00000000000E+00  0.64930732323E+04  0.65000000000E+04  0.30000000000E+03 0. -1.
        -52   -1    0    0    0    0 -0.00000000000E+00 -0.00000000000E+00 -0.64930732323E+04  0.65000000000E+04  0.30000000000E+03 0.  1.
     100001    1    1    2    0    0  0.32732363636E+03  0.13468359775E+04  0.63487197006E+04  0.65000000000E+04  0.15050000000E+03 0. -1.
     100001    1    1    2    0    0 -0.32732363636E+03 -0.13468359775E+04 -0.63487197006E+04  0.65000000000E+04  0.15050000000E+03 0.  1.
</event>
<event>
 4    1  0.5640637E-004  0.6500000E+04  0.7818608E-02  0.7223770E-01
         52   -1    0    0    0    0  0.00000000000E+00  0.00000000000E+00  0.64930732323E+04  0.65000000000E+04  0.30000000000E+03 0.  1.
        -52   -1    0    0    0    0 -0.00000000000E+00 -0.00000000000E+00 -0.64930732323E+04  0.65000000000E+04  0.30000000000E+03 0. -1.
     100001    1    1    2    0    0 -0.40579943998E+03 -0.77077773090E+03  0.64396101011E+04  0.65000000000E+04  0.15050000000E+03 0.  1.
     100001    1    1    2    0    0  0.40579943998E+03  0.77077773090E+03 -0.64396101011E+04  0.65000000000E+04  0.15050000000E+03 0. -1.
</event>
<event>
 4    1  0.5640637E-004  0.6500000E+04  0.7818608E-02  0.7223770E-01
         52   -1    0    0    0    0  0.00000000000E+00  0.00000000000E+00  0.64930732323E+04  0.65000000000E+04  0.30000000000E+03 0. -1.
        -52   -1    0    0    0    0 -0.00000000000E+00 -0.00000000000E+00 -0.64930732323E+04  0.65000000000E+04  0.30000000000E+03 0.  1.
     100001    1    1    2    0    0  0.58684329558E+03  0.87994405086E+02 -0.64711066813E+04  0.65000000000E+04  0.15050000000E+03 0.  1.
     100001    1    1    2    0    0 -0.58684329558E+03 -0.87994405086E+02  0.64711066813E+04  0.65000000000E+04  0.15050000000E+03 0. -1.
</event>
<event>
 4    1  0.6301439E-004  0.6500000E+04  0.7818608E-02  0.7223770E-01
         52   -1    0    0    0    0  0.00000000000E+00  0.00000000000E+00  0.64930732323E+04  0.65000000000E+04  0.30000000000E+03 0.  1.
        -52   -1    0    0    0    0 -0.00000000000E+00 -0.00000000000E+00 -0.64930732323E+04  0.65000000000E+04  0.30000000000E+03 0. -1.
     100001    1    1    2    0    0  0.88892651241E+02 -0.18806755157E+03  0.64949271314E+04  0.65000000000E+04  0.15050000000E+03 0.  1.
     100001    1    1    2    0    0 -0.88892651241E+02  0.18806755157E+03 -0.64949271314E+04  0.65000000000E+04  0.15050000000E+03 0. -1.
</event>
<event>
 4    1  0.5640637E-004  0.6500000E+04  0.7818608E-02  0.7223770E-01
         52   -1    0    0    0    0  0.00000000000E+00  0.00000000000E+00  0.64930732323E+04  0.65000000000E+04  0.30000000000E+03 0. -1.
        -52   -1    0    0    0    0 -0.00000000000E+00 -0.00000000000E+00 -0.64930732323E+04  0.65000000000E+04  0.30000000000E+03 0.  1.
     100001    1    1    2    0    0  0.13732646553E+04  0.20240097550E+04 -0.60203719526E+04  0.65000000000E+04  0.15050000000E+03 0.  1.
     100001    1    1    2    0    0 -0.13732646553E+04 -0.20240097550E+04  0.60203719526E+04  0.65000000000E+04  0.15050000000E+03 0. -1.
</event>
<event>
 4    1  0.5640637E-004  0.6500000E+04  0.7818608E-02  0.7223770E-01
         52   -1    0    0    0    0  0.00000000000E+00  0.00000000000E+00  0.64930732323E+04  0.65000000000E+04  0.30000000000E+03 0. -1.
        -52   -1    0    0    0    0 -0.00000000000E+00 -0.00000000000E+00 -0.64930732323E+04  0.65000000000E+04  0.30000000000E+03 0. -1.
     100001    1    1    2    0    0 -0.61541512953E+03 -0.68786878679E+03  0.64323751834E+04  0.65000000000E+04  0.15050000000E+03 0. -1.
     100001    1    1    2    0    0  0.61541512953E+03  0.68786878679E+03 -0.64323751834E+04  0.65000000000E+04  0.15050000000E+03 0. -1.
</event>
<event>
 4    1  0.6293337E-004  0.6500000E+04  0.7818608E-02  0.7223770E-01
         52   -1    0    0    0    0  0.00000000000E+00  0.00000000000E+00  0.64930732323E+04  0.65000000000E+04  0.30000000000E+03 0. -1.
        -52   -1    0    0    0    0 -0.00000000000E+00 -0.00000000000E+00 -0.64930732323E+04  0.65000000000E+04  0.30000000000E+03 0.  1.
     100001    1    1    2    0    0 -0.24017020584E+03 -0.49713056208E+02  0.64936273865E+04  0.65000000000E+04  0.15050000000E+03 0. -1.
     100001    1    1    2    0    0  0.24017020584E+03  0.49713056208E+02 -0.64936273865E+04  0.65000000000E+04  0.15050000000E+03 0.  1.
</event>
<event>
 4    1  0.5640637E-004  0.6500000E+04  0.7818608E-02  0.7223770E-01
         52   -1    0    0    0    0  0.00000000000E+00  0.00000000000E+00  0.64930732323E+04  0.65000000000E+04  0.30000000000E+03 0. -1.
        -52   -1    0    0    0    0 -0.00000000000E+00 -0.00000000000E+00 -0.64930732323E+04  0.65000000000E+04  0.30000000000E+03 0.  1.
     100001    1    1    2    0    0 -0.64079250114E+04  0.54779860401E+03 -0.93046412516E+03  0.65000000000E+04  0.15050000000E+03 0. -1.
     100001    1    1    2    0    0  0.64079250114E+04 -0.54779860401E+03  0.93046412516E+03  0.65000000000E+04  0.15050000000E+03 0.  1.
</event>
<event>
 4    1  0.5640637E-004  0.6500000E+04  0.7818608E-02  0.7223770E-01
         52   -1    0    0    0    0  0.00000000000E+00  0.00000000000E+00  0.64930732323E+04  0.65000000000E+04  0.30000000000E+03 0.  1.
        -52   -1    0    0    0    0 -0.00000000000E+00 -0.00000000000E+00 -0.64930732323E+04  0.65000000000E+04  0.30000000000E+03 0. -1.
     100001    1    1    2    0    0 -0.27791228556E+03 -0.27421962305E+04  0.58847662948E+04  0.65000000000E+04  0.15050000000E+03 0.  1.
     100001    1    1    2    0    0  0.27791228556E+03  0.27421962305E+04 -0.58847662948E+04  0.65000000000E+04  0.15050000000E+03 0. -1.
</event>
<event>
 4    1  0.5640637E-004  0.6500000E+04  0.7818608E-02  0.7223770E-01
         52   -1    0    0    0    0  0.00000000000E+00  0.00000000000E+00  0.64930732323E+04  0.65000000000E+04  0.30000000000E+03 0.  1.
        -52   -1    0    0    0    0 -0.00000000000E+00 -0.00000000000E+00 -0.64930732323E+04  0.65000000000E+04  0.30000000000E+03 0. -1.
     100001    1    1    2    0    0  0.86472303023E+03 -0.10624591010E+04 -0.63522267347E+04  0.65000000000E+04  0.15050000000E+03 0. -1.
     100001    1    1    2    0    0 -0.86472303023E+03  0.10624591010E+04  0.63522267347E+04  0.65000000000E+04  0.15050000000E+03 0.  1.
</event>
<event>
 4    1  0.5640637E-004  0.6500000E+04  0.7818608E-02  0.7223770E-01
         52   -1    0    0    0    0  0.00000000000E+00  0.00000000000E+00  0.64930732323E+04  0.65000000000E+04  0.30000000000E+03 0. -1.
        -52   -1    0    0    0    0 -0.00000000000E+00 -0.00000000000E+00 -0.64930732323E+04  0.65000000000E+04  0.30000000000E+03 0.  1.
     100001    1    1    2    0    0 -0.24521727782E+04 -0.49690444514E+03 -0.59972730793E+04  0.65000000000E+04  0.15050000000E+03 0.  1.
     100001    1    1    2    0    0  0.24521727782E+04  0.49690444514E+03  0.59972730793E+04  0.65000000000E+04  0.15050000000E+03 0. -1.
</event>
<event>
 4    1  0.5640637E-004  0.6500000E+04  0.7818608E-02  0.7223770E-01
         52   -1    0    0    0    0  0.00000000000E+00  0.00000000000E+00  0.64930732323E+04  0.65000000000E+04  0.30000000000E+03 0. -1.
        -52   -1    0    0    0    0 -0.00000000000E+00 -0.00000000000E+00 -0.64930732323E+04  0.65000000000E+04  0.30000000000E+03 0.  1.
     100001    1    1    2    0    0 -0.10540698538E+03 -0.63908250524E+04 -0.11720043803E+04  0.65000000000E+04  0.15050000000E+03 0.  1.
     100001    1    1    2    0    0  0.10540698538E+03  0.63908250524E+04  0.11720043803E+04  0.65000000000E+04  0.15050000000E+03 0. -1.
</event>
<event>
 4    1  0.5640637E-004  0.6500000E+04  0.7818608E-02  0.7223770E-01
         52   -1    0    0    0    0  0.00000000000E+00  0.00000000000E+00  0.64930732323E+04  0.65000000000E+04  0.30000000000E+03 0.  1.
        -52   -1    0    0    0    0 -0.00000000000E+00 -0.00000000000E+00 -0.64930732323E+04  0.65000000000E+04  0.30000000000E+03 0.  1.
     100001    1    1    2    0    0 -0.35123695335E+03  0.44015315017E+03 -0.64738124438E+04  0.65000000000E+04  0.15050000000E+03 0.  1.
     100001    1    1    2    0    0  0.35123695335E+03 -0.44015315017E+03  0.64738124438E+04  0.65000000000E+04  0.15050000000E+03 0.  1.
</event>
<event>
 4    1  0.5640637E-004  0.6500000E+04  0.7818608E-02  0.7223770E-01
         52   -1    0    0    0    0  0.00000000000E+00  0.00000000000E+00  0.64930732323E+04  0.65000000000E+04  0.30000000000E+03 0.  1.
        -52   -1    0    0    0    0 -0.00000000000E+00 -0.00000000000E+00 -0.64930732323E+04  0.65000000000E+04  0.30000000000E+03 0. -1.
     100001    1    1    2    0    0 -0.24943927443E+03 -0.14736358150E+04  0.63240435864E+04  0.65000000000E+04  0.15050000000E+03 0.  1.
     100001    1    1    2    0    0  0.24943927443E+03  0.14736358150E+04 -0.63240435864E+04  0.65000000000E+04  0.15050000000E+03 0. -1.
</event>
<event>
 4    1  0.5640637E-004  0.6500000E+04  0.7818608E-02  0.7223770E-01
         52   -1    0    0    0    0  0.00000000000E+00  0.00000000000E+00  0.64930732323E+04  0.65000000000E+04  0.30000000000E+03 0. -1.
        -52   -1    0    0    0    0 -0.00000000000E+00 -0.00000000000E+00 -0.64930732323E+04  0.65000000000E+04  0.30000000000E+03 0.  1.
     100001    1    1    2    0    0 -0.60270063149E+03  0.10925459166E+04 -0.63773384040E+04  0.65000000000E+04  0.15050000000E+03 0.  1.
     100001    1    1    2    0    0  0.60270063149E+03 -0.10925459166E+04  0.63773384040E+04  0.65000000000E+04  0.15050000000E+03 0. -1.
</event>
<event>
 4    1  0.5640637E-004  0.6500000E+04  0.7818608E-02  0.7223770E-01
         52   -1    0    0    0    0  0.00000000000E+00  0.00000000000E+00  0.64930732323E+04  0.65000000000E+04  0.30000000000E+03 0. -1.
        -52   -1    0    0    0    0 -0.00000000000E+00 -0.00000000000E+00 -0.64930732323E+04  0.65000000000E+04  0.30000000000E+03 0.  1.
     100001    1    1    2    0    0  0.14389286465E+03 -0.26062667909E+03 -0.64914342273E+04  0.65000000000E+04  0.15050000000E+03 0.  1.
     100001    1    1    2    0    0 -0.14389286465E+03  0.26062667909E+03  0.64914342273E+04  0.65000000000E+04  0.15050000000E+03 0. -1.
</event>
<event>
 4    1  0.5640637E-004  0.6500000E+04  0.7818608E-02  0.7223770E-01
         52   -1    0    0    0    0  0.00000000000E+00  0.00000000000E+00  0.64930732323E+04  0.65000000000E+04  0.30000000000E+03 0.  1.
        -52   -1    0    0    0    0 -0.00000000000E+00 -0.00000000000E+00 -0.64930732323E+04  0.65000000000E+04  0.30000000000E+03 0. -1.
     100001    1    1    2    0    0  0.67312442747E+03 -0.26465845145E+03  0.64578796179E+04  0.65000000000E+04  0.15050000000E+03 0.  1.
     100001    1    1    2    0    0 -0.67312442747E+03  0.26465845145E+03 -0.64578796179E+04  0.65000000000E+04  0.15050000000E+03 0. -1.
</event>
<event>
 4    1  0.5640637E-004  0.6500000E+04  0.7818608E-02  0.7223770E-01
         52   -1    0    0    0    0  0.00000000000E+00  0.00000000000E+00  0.64930732323E+04  0.65000000000E+04  0.30000000000E+03 0.  1.
        -52   -1    0    0    0    0 -0.00000000000E+00 -0.00000000000E+00 -0.64930732323E+04  0.65000000000E+04  0.30000000000E+03 0. -1.
     100001    1    1    2    0    0  0.10309464944E+03 -0.91171560421E+03  0.64331559829E+04  0.65000000000E+04  0.15050000000E+03 0.  1.
     100001    1    1    2    0    0 -0.10309464944E+03  0.91171560421E+03 -0.64331559829E+04  0.65000000000E+04  0.15050000000E+03 0. -1.
</event>
<event>
 4    1  0.5640637E-004  0.6500000E+04  0.7818608E-02  0.7223770E-01
         52   -1    0    0    0    0  0.00000000000E+00  0.00000000000E+00  0.64930732323E+04  0.65000000000E+04  0.30000000000E+03 0.  1.
        -52   -1    0    0    0    0 -0.00000000000E+00 -0.00000000000E+00 -0.64930732323E+04  0.65000000000E+04  0.30000000000E+03 0. -1.
     100001    1    1    2    0    0 -0.21686818774E+04 -0.22341075172E+04  0.57037647450E+04  0.65000000000E+04  0.15050000000E+03 0.  1.
     100001    1    1    2    0    0  0.21686818774E+04  0.22341075172E+04 -0.57037647450E+04  0.65000000000E+04  0.15050000000E+03 0. -1.
</event>
<event>
 4    1  0.5640637E-004  0.6500000E+04  0.7818608E-02  0.7223770E-01
         52   -1    0    0    0    0  0.00000000000E+00  0.00000000000E+00  0.64930732323E+04  0.65000000000E+04  0.30000000000E+03 0.  1.
        -52   -1    0    0    0    0 -0.00000000000E+00 -0.00000000000E+00 -0.64930732323E+04  0.65000000000E+04  0.30000000000E+03 0. -1.
     100001    1    1    2    0    0  0.43063929157E+03 -0.31065894075E+03  0.64765261192E+04  0.65000000000E+04  0.15050000000E+03 0.  1.
     100001    1    1    2    0    0 -0.43063929157E+03  0.31065894075E+03 -0.64765261192E+04  0.65000000000E+04  0.15050000000E+03 0. -1.
</event>
<event>
 4    1  0.5640637E-004  0.6500000E+04  0.7818608E-02  0.7223770E-01
         52   -1    0    0    0    0  0.00000000000E+00  0.00000000000E+00  0.64930732323E+04  0.65000000000E+04  0.30000000000E+03 0. -1.
        -52   -1    0    0    0    0 -0.00000000000E+00 -0.00000000000E+00 -0.64930732323E+04  0.65000000000E+04  0.30000000000E+03 0. -1.
     100001    1    1    2    0    0  0.71644433919E+03 -0.43762205773E+03 -0.64437988946E+04  0.65000000000E+04  0.15050000000E+03 0. -1.
     100001    1    1    2    0    0 -0.71644433919E+03  0.43762205773E+03  0.64437988946E+04  0.65000000000E+04  0.15050000000E+03 0. -1.
</event>
<event>
 4    1  0.5640637E-004  0.6500000E+04  0.7818608E-02  0.7223770E-01
         52   -1    0    0    0    0  0.00000000000E+00  0.00000000000E+00  0.64930732323E+04  0.65000000000E+04  0.30000000000E+03 0. -1.
        -52   -1    0    0    0    0 -0.00000000000E+00 -0.00000000000E+00 -0.64930732323E+04  0.65000000000E+04  0.30000000000E+03 0.  1.
     100001    1    1    2    0    0  0.13763657298E+04 -0.51473880504E+04 -0.37198606676E+04  0.65000000000E+04  0.15050000000E+03 0.  1.
     100001    1    1    2    0    0 -0.13763657298E+04  0.51473880504E+04  0.37198606676E+04  0.65000000000E+04  0.15050000000E+03 0. -1.
</event>
<event>
 4    1  0.8067201E-004  0.6500000E+04  0.7818608E-02  0.7223770E-01
         52   -1    0    0    0    0  0.00000000000E+00  0.00000000000E+00  0.64930732323E+04  0.65000000000E+04  0.30000000000E+03 0. -1.
        -52   -1    0    0    0    0 -0.00000000000E+00 -0.00000000000E+00 -0.64930732323E+04  0.65000000000E+04  0.30000000000E+03 0. -1.
     100001    1    1    2    0    0  0.46914741496E+02 -0.10056038056E+03  0.64973099331E+04  0.65000000000E+04  0.15050000000E+03 0. -1.
     100001    1    1    2    0    0 -0.46914741496E+02  0.10056038056E+03 -0.64973099331E+04  0.65000000000E+04  0.15050000000E+03 0. -1.
</event>
<event>
 4    1  0.5640637E-004  0.6500000E+04  0.7818608E-02  0.7223770E-01
         52   -1    0    0    0    0  0.00000000000E+00  0.00000000000E+00  0.64930732323E+04  0.65000000000E+04  0.30000000000E+03 0.  1.
        -52   -1    0    0    0    0 -0.00000000000E+00 -0.00000000000E+00 -0.64930732323E+04  0.65000000000E+04  0.30000000000E+03 0. -1.
     100001    1    1    2    0    0 -0.65788337509E+02 -0.78758520351E+03  0.64500179218E+04  0.65000000000E+04  0.15050000000E+03 0.  1.
     100001    1    1    2    0    0  0.65788337509E+02  0.78758520351E+03 -0.64500179218E+04  0.65000000000E+04  0.15050000000E+03 0. -1.
</event>
<event>
 4    1  0.5640637E-004  0.6500000E+04  0.7818608E-02  0.7223770E-01
         52   -1    0    0    0    0  0.00000000000E+00  0.00000000000E+00  0.64930732323E+04  0.65000000000E+04  0.30000000000E+03 0.  1.
        -52   -1    0    0    0    0 -0.00000000000E+00 -0.00000000000E+00 -0.64930732323E+04  0.65000000000E+04  0.30000000000E+03 0. -1.
     100001    1    1    2    0    0  0.36995309751E+04 -0.49600076597E+04 -0.19847277721E+04  0.65000000000E+04  0.15050000000E+03 0.  1.
     100001    1    1    2    0    0 -0.36995309751E+04  0.49600076597E+04  0.19847277721E+04  0.65000000000E+04  0.15050000000E+03 0. -1.
</event>
<event>
 4    1  0.5640637E-004  0.6500000E+04  0.7818608E-02  0.7223770E-01
         52   -1    0    0    0    0  0.00000000000E+00  0.00000000000E+00  0.64930732323E+04  0.65000000000E+04  0.30000000000E+03 0. -1.
        -52   -1    0    0    0    0 -0.00000000000E+00 -0.00000000000E+00 -0.64930732323E+04  0.65000000000E+04  0.30000000000E+03 0.  1.
     100001    1    1    2    0    0  0.33580236555E+04  0.19953051138E+03  0.55597854684E+04  0.65000000000E+04  0.15050000000E+03 0. -1.
     100001    1    1    2    0    0 -0.33580236555E+04 -0.19953051138E+03 -0.55597854684E+04  0.65000000000E+04  0.15050000000E+03 0.  1.
</event>
<event>
 4    1  0.5640637E-004  0.6500000E+04  0.7818608E-02  0.7223770E-01
         52   -1    0    0    0    0  0.00000000000E+00  0.00000000000E+00  0.64930732323E+04  0.65000000000E+04  0.30000000000E+03 0.  1.
        -52   -1    0    0    0    0 -0.00000000000E+00 -0.00000000000E+00 -0.64930732323E+04  0.65000000000E+04  0.30000000000E+03 0. -1.
     100001    1    1    2    0    0  0.21944414636E+04  0.14398080301E+04  0.59446386980E+04  0.65000000000E+04  0.15050000000E+03 0.  1.
     100001    1    1    2    0    0 -0.21944414636E+04 -0.14398080301E+04 -0.59446386980E+04  0.65000000000E+04  0.15050000000E+03 0. -1.
</event>
<event>
 4    1  0.5640637E-004  0.6500000E+04  0.7818608E-02  0.7223770E-01
         52   -1    0    0    0    0  0.00000000000E+00  0.00000000000E+00  0.64930732323E+04  0.65000000000E+04  0.30000000000E+03 0.  1.
        -52   -1    0    0    0    0 -0.00000000000E+00 -0.00000000000E+00 -0.64930732323E+04  0.65000000000E+04  0.30000000000E+03 0. -1.
     100001    1    1    2    0    0 -0.10380909721E+04  0.97718225621E+03 -0.63399394100E+04  0.65000000000E+04  0.15050000000E+03 0. -1.
     100001    1    1    2    0    0  0.10380909721E+04 -0.97718225621E+03  0.63399394100E+04  0.65000000000E+04  0.15050000000E+03 0.  1.
</event>
<event>
 4    1  0.5640637E-004  0.6500000E+04  0.7818608E-02  0.7223770E-01
         52   -1    0    0    0    0  0.00000000000E+00  0.00000000000E+00  0.64930732323E+04  0.65000000000E+04  0.30000000000E+03 0. -1.
        -52   -1    0    0    0    0 -0.00000000000E+00 -0.00000000000E+00 -0.64930732323E+04  0.65000000000E+04  0.30000000000E+03 0.  1.
     100001    1    1    2    0    0 -0.52599883240E+03  0.62213199374E+02 -0.64766352758E+04  0.65000000000E+04  0.15050000000E+03 0.  1.
     100001    1    1    2    0    0  0.52599883240E+03 -0.62213199374E+02  0.64766352758E+04  0.65000000000E+04  0.15050000000E+03 0. -1.
</event>
<event>
 4    1  0.5640637E-004  0.6500000E+04  0.7818608E-02  0.7223770E-01
         52   -1    0    0    0    0  0.00000000000E+00  0.00000000000E+00  0.64930732323E+04  0.65000000000E+04  0.30000000000E+03 0.  1.
        -52   -1    0    0    0    0 -0.00000000000E+00 -0.00000000000E+00 -0.64930732323E+04  0.65000000000E+04  0.30000000000E+03 0.  1.
     100001    1    1    2    0    0  0.22892047261E+03 -0.26018087047E+03  0.64890100233E+04  0.65000000000E+04  0.15050000000E+03 0.  1.
     100001    1    1    2    0    0 -0.22892047261E+03  0.26018087047E+03 -0.64890100233E+04  0.65000000000E+04  0.15050000000E+03 0.  1.
</event>
<event>
 4    1  0.5640637E-004  0.6500000E+04  0.7818608E-02  0.7223770E-01
         52   -1    0    0    0    0  0.00000000000E+00  0.00000000000E+00  0.64930732323E+04  0.65000000000E+04  0.30000000000E+03 0.  1.
        -52   -1    0    0    0    0 -0.00000000000E+00 -0.00000000000E+00 -0.64930732323E+04  0.65000000000E+04  0.30000000000E+03 0. -1.
     100001    1    1    2    0    0 -0.64649798521E+02  0.26457669985E+03 -0.64925472138E+04  0.65000000000E+04  0.15050000000E+03 0. -1.
     100001    1    1    2    0    0  0.64649798521E+02 -0.26457669985E+03  0.64925472138E+04  0.65000000000E+04  0.15050000000E+03 0.  1.
</event>
<event>
 4    1  0.5640637E-004  0.6500000E+04  0.7818608E-02  0.7223770E-01
         52   -1    0    0    0    0  0.00000000000E+00  0.00000000000E+00  0.64930732323E+04  0.65000000000E+04  0.30000000000E+03 0.  1.
        -52   -1    0    0    0    0 -0.00000000000E+00 -0.00000000000E+00 -0.64930732323E+04  0.65000000000E+04  0.30000000000E+03 0. -1.
     100001    1    1    2    0    0  0.35761106926E+02  0.12013727720E+03 -0.64970484012E+04  0.65000000000E+04  0.15050000000E+03 0. -1.
     100001    1    1    2    0    0 -0.35761106926E+02 -0.12013727720E+03  0.64970484012E+04  0.65000000000E+04  0.15050000000E+03 0.  1.
</event>
<event>
 4    1  0.5640637E-004  0.6500000E+04  0.7818608E-02  0.7223770E-01
         52   -1    0    0    0    0  0.00000000000E+00  0.00000000000E+00  0.64930732323E+04  0.65000000000E+04  0.30000000000E+03 0. -1.
        -52   -1    0    0    0    0 -0.00000000000E+00 -0.00000000000E+00 -0.64930732323E+04  0.65000000000E+04  0.30000000000E+03 0.  1.
     100001    1    1    2    0    0  0.19358286003E+04 -0.39823407370E+03 -0.61904221991E+04  0.65000000000E+04  0.15050000000E+03 0.  1.
     100001    1    1    2    0    0 -0.19358286003E+04  0.39823407370E+03  0.61904221991E+04  0.65000000000E+04  0.15050000000E+03 0. -1.
</event>
<event>
 4    1  0.5640637E-004  0.6500000E+04  0.7818608E-02  0.7223770E-01
         52   -1    0    0    0    0  0.00000000000E+00  0.00000000000E+00  0.64930732323E+04  0.65000000000E+04  0.30000000000E+03 0. -1.
        -52   -1    0    0    0    0 -0.00000000000E+00 -0.00000000000E+00 -0.64930732323E+04  0.65000000000E+04  0.30000000000E+03 0.  1.
     100001    1    1    2    0    0 -0.51739774168E+03 -0.14637698149E+04 -0.63100734747E+04  0.65000000000E+04  0.15050000000E+03 0.  1.
     100001    1    1    2    0    0  0.51739774168E+03  0.14637698149E+04  0.63100734747E+04  0.65000000000E+04  0.15050000000E+03 0. -1.
</event>
<event>
 4    1  0.5640637E-004  0.6500000E+04  0.7818608E-02  0.7223770E-01
         52   -1    0    0    0    0  0.00000000000E+00  0.00000000000E+00  0.64930732323E+04  0.65000000000E+04  0.30000000000E+03 0. -1.
        -52   -1    0    0    0    0 -0.00000000000E+00 -0.00000000000E+00 -0.64930732323E+04  0.65000000000E+04  0.30000000000E+03 0.  1.
     100001    1    1    2    0    0 -0.23666918084E+04 -0.33806033990E+04 -0.50197251212E+04  0.65000000000E+04  0.15050000000E+03 0.  1.
     100001    1    1    2    0    0  0.23666918084E+04  0.33806033990E+04  0.50197251212E+04  0.65000000000E+04  0.15050000000E+03 0. -1.
</event>
<event>
 4    1  0.5640637E-004  0.6500000E+04  0.7818608E-02  0.7223770E-01
         52   -1    0    0    0    0  0.00000000000E+00  0.00000000000E+00  0.64930732323E+04  0.65000000000E+04  0.30000000000E+03 0.  1.
        -52   -1    0    0    0    0 -0.00000000000E+00 -0.00000000000E+00 -0.64930732323E+04  0.65000000000E+04  0.30000000000E+03 0. -1.
     100001    1    1    2    0    0  0.30950414592E+03  0.28100186635E+03  0.64847972123E+04  0.65000000000E+04  0.15050000000E+03 0.  1.
     100001    1    1    2    0    0 -0.30950414592E+03 -0.28100186635E+03 -0.64847972123E+04  0.65000000000E+04  0.15050000000E+03 0. -1.
</event>
<event>
 4    1  0.5640637E-004  0.6500000E+04  0.7818608E-02  0.7223770E-01
         52   -1    0    0    0    0  0.00000000000E+00  0.00000000000E+00  0.64930732323E+04  0.65000000000E+04  0.30000000000E+03 0.  1.
        -52   -1    0    0    0    0 -0.00000000000E+00 -0.00000000000E+00 -0.64930732323E+04  0.65000000000E+04  0.30000000000E+03 0. -1.
     100001    1    1    2    0    0 -0.25572340313E+04 -0.41491204742E+03 -0.59595093634E+04  0.65000000000E+04  0.15050000000E+03 0. -1.
     100001    1    1    2    0    0  0.25572340313E+04  0.41491204742E+03  0.59595093634E+04  0.65000000000E+04  0.15050000000E+03 0.  1.
</event>
<event>
 4    1  0.5640637E-004  0.6500000E+04  0.7818608E-02  0.7223770E-01
         52   -1    0    0    0    0  0.00000000000E+00  0.00000000000E+00  0.64930732323E+04  0.65000000000E+04  0.30000000000E+03 0. -1.
        -52   -1    0    0    0    0 -0.00000000000E+00 -0.00000000000E+00 -0.64930732323E+04  0.65000000000E+04  0.30000000000E+03 0.  1.
     100001    1    1    2    0    0 -0.38358693077E+04 -0.42212878851E+04 -0.31135486178E+04  0.65000000000E+04  0.15050000000E+03 0. -1.
     100001    1    1    2    0    0  0.38358693077E+04  0.42212878851E+04  0.31135486178E+04  0.65000000000E+04  0.15050000000E+03 0.  1.
</event>
<event>
 4    1  0.5640637E-004  0.6500000E+04  0.7818608E-02  0.7223770E-01
         52   -1    0    0    0    0  0.00000000000E+00  0.00000000000E+00  0.64930732323E+04  0.65000000000E+04  0.30000000000E+03 0. -1.
        -52   -1    0    0    0    0 -0.00000000000E+00 -0.00000000000E+00 -0.64930732323E+04  0.65000000000E+04  0.30000000000E+03 0.  1.
     100001    1    1    2    0    0  0.83525970405E+03  0.30464984100E+04  0.56787796589E+04  0.65000000000E+04  0.15050000000E+03 0. -1.
     100001    1    1    2    0    0 -0.83525970405E+03 -0.30464984100E+04 -0.56787796589E+04  0.65000000000E+04  0.15050000000E+03 0.  1.
</event>
<event>
 4    1  0.5640637E-004  0.6500000E+04  0.7818608E-02  0.7223770E-01
         52   -1    0    0    0    0  0.00000000000E+00  0.00000000000E+00  0.64930732323E+04  0.65000000000E+04  0.30000000000E+03 0.  1.
        -52   -1    0    0    0    0 -0.00000000000E+00 -0.00000000000E+00 -0.64930732323E+04  0.65000000000E+04  0.30000000000E+03 0. -1.
     100001    1    1    2    0    0  0.24130243099E+04  0.89091827982E+03 -0.59674892583E+04  0.65000000000E+04  0.15050000000E+03 0. -1.
     100001    1    1    2    0    0 -0.24130243099E+04 -0.89091827982E+03  0.59674892583E+04  0.65000000000E+04  0.15050000000E+03 0.  1.
</event>
<event>
 4    1  0.5640637E-004  0.6500000E+04  0.7818608E-02  0.7223770E-01
         52   -1    0    0    0    0  0.00000000000E+00  0.00000000000E+00  0.64930732323E+04  0.65000000000E+04  0.30000000000E+03 0. -1.
        -52   -1    0    0    0    0 -0.00000000000E+00 -0.00000000000E+00 -0.64930732323E+04  0.65000000000E+04  0.30000000000E+03 0.  1.
     100001    1    1    2    0    0 -0.35375102872E+03  0.29559888854E+03  0.64818848537E+04  0.65000000000E+04  0.15050000000E+03 0. -1.
     100001    1    1    2    0    0  0.35375102872E+03 -0.29559888854E+03 -0.64818848537E+04  0.65000000000E+04  0.15050000000E+03 0.  1.
</event>
<event>
 4    1  0.5640637E-004  0.6500000E+04  0.7818608E-02  0.7223770E-01
         52   -1    0    0    0    0  0.00000000000E+00  0.00000000000E+00  0.64930732323E+04  0.65000000000E+04  0.30000000000E+03 0.  1.
        -52   -1    0    0    0    0 -0.00000000000E+00 -0.00000000000E+00 -0.64930732323E+04  0.65000000000E+04  0.30000000000E+03 0. -1.
     100001    1    1    2    0    0  0.84671249896E+03 -0.20446605251E+04 -0.61098110471E+04  0.65000000000E+04  0.15050000000E+03 0. -1.
     100001    1    1    2    0    0 -0.84671249896E+03  0.20446605251E+04  0.61098110471E+04  0.65000000000E+04  0.15050000000E+03 0.  1.
</event>
<event>
 4    1  0.5640637E-004  0.6500000E+04  0.7818608E-02  0.7223770E-01
         52   -1    0    0    0    0  0.00000000000E+00  0.00000000000E+00  0.64930732323E+04  0.65000000000E+04  0.30000000000E+03 0.  1.
        -52   -1    0    0    0    0 -0.00000000000E+00 -0.00000000000E+00 -0.64930732323E+04  0.65000000000E+04  0.30000000000E+03 0. -1.
     100001    1    1    2    0    0 -0.51089838510E+03  0.12378042726E+04  0.63587870835E+04  0.65000000000E+04  0.15050000000E+03 0.  1.
     100001    1    1    2    0    0  0.51089838510E+03 -0.12378042726E+04 -0.63587870835E+04  0.65000000000E+04  0.15050000000E+03 0. -1.
</event>
<event>
 4    1  0.5640637E-004  0.6500000E+04  0.7818608E-02  0.7223770E-01
         52   -1    0    0    0    0  0.00000000000E+00  0.00000000000E+00  0.64930732323E+04  0.65000000000E+04  0.30000000000E+03 0. -1.
        -52   -1    0    0    0    0 -0.00000000000E+00 -0.00000000000E+00 -0.64930732323E+04  0.65000000000E+04  0.30000000000E+03 0.  1.
     100001    1    1    2    0    0  0.16078324795E+04 -0.22304226441E+04  0.58879061895E+04  0.65000000000E+04  0.15050000000E+03 0. -1.
     100001    1    1    2    0    0 -0.16078324795E+04  0.22304226441E+04 -0.58879061895E+04  0.65000000000E+04  0.15050000000E+03 0.  1.
</event>
<event>
 4    1  0.5640637E-004  0.6500000E+04  0.7818608E-02  0.7223770E-01
         52   -1    0    0    0    0  0.00000000000E+00  0.00000000000E+00  0.64930732323E+04  0.65000000000E+04  0.30000000000E+03 0.  1.
        -52   -1    0    0    0    0 -0.00000000000E+00 -0.00000000000E+00 -0.64930732323E+04  0.65000000000E+04  0.30000000000E+03 0. -1.
     100001    1    1    2    0    0  0.46873613937E+03  0.27721775336E+04  0.58585551038E+04  0.65000000000E+04  0.15050000000E+03 0.  1.
     100001    1    1    2    0    0 -0.46873613937E+03 -0.27721775336E+04 -0.58585551038E+04  0.65000000000E+04  0.15050000000E+03 0. -1.
</event>
<event>
 4    1  0.5640637E-004  0.6500000E+04  0.7818608E-02  0.7223770E-01
         52   -1    0    0    0    0  0.00000000000E+00  0.00000000000E+00  0.64930732323E+04  0.65000000000E+04  0.30000000000E+03 0.  1.
        -52   -1    0    0    0    0 -0.00000000000E+00 -0.00000000000E+00 -0.64930732323E+04  0.65000000000E+04  0.30000000000E+03 0.  1.
     100001    1    1    2    0    0 -0.26680966779E+03 -0.95940487140E+02 -0.64920688362E+04  0.65000000000E+04  0.15050000000E+03 0.  1.
     100001    1    1    2    0    0  0.26680966779E+03  0.95940487140E+02  0.64920688362E+04  0.65000000000E+04  0.15050000000E+03 0.  1.
</event>
<event>
 4    1  0.5640637E-004  0.6500000E+04  0.7818608E-02  0.7223770E-01
         52   -1    0    0    0    0  0.00000000000E+00  0.00000000000E+00  0.64930732323E+04  0.65000000000E+04  0.30000000000E+03 0.  1.
        -52   -1    0    0    0    0 -0.00000000000E+00 -0.00000000000E+00 -0.64930732323E+04  0.65000000000E+04  0.30000000000E+03 0. -1.
     100001    1    1    2    0    0  0.13650413898E+04 -0.27195024689E+04 -0.57418044268E+04  0.65000000000E+04  0.15050000000E+03 0. -1.
     100001    1    1    2    0    0 -0.13650413898E+04  0.27195024689E+04  0.57418044268E+04  0.65000000000E+04  0.15050000000E+03 0.  1.
</event>
<event>
 4    1  0.5640637E-004  0.6500000E+04  0.7818608E-02  0.7223770E-01
         52   -1    0    0    0    0  0.00000000000E+00  0.00000000000E+00  0.64930732323E+04  0.65000000000E+04  0.30000000000E+03 0.  1.
        -52   -1    0    0    0    0 -0.00000000000E+00 -0.00000000000E+00 -0.64930732323E+04  0.65000000000E+04  0.30000000000E+03 0. -1.
     100001    1    1    2    0    0 -0.45028125136E+03 -0.44830195773E+03  0.64671185160E+04  0.65000000000E+04  0.15050000000E+03 0.  1.
     100001    1    1    2    0    0  0.45028125136E+03  0.44830195773E+03 -0.64671185160E+04  0.65000000000E+04  0.15050000000E+03 0. -1.
</event>
<event>
 4    1  0.5640637E-004  0.6500000E+04  0.7818608E-02  0.7223770E-01
         52   -1    0    0    0    0  0.00000000000E+00  0.00000000000E+00  0.64930732323E+04  0.65000000000E+04  0.30000000000E+03 0. -1.
        -52   -1    0    0    0    0 -0.00000000000E+00 -0.00000000000E+00 -0.64930732323E+04  0.65000000000E+04  0.30000000000E+03 0.  1.
     100001    1    1    2    0    0 -0.30720752566E+04  0.22663460381E+04 -0.52586480205E+04  0.65000000000E+04  0.15050000000E+03 0.  1.
     100001    1    1    2    0    0  0.30720752566E+04 -0.22663460381E+04  0.52586480205E+04  0.65000000000E+04  0.15050000000E+03 0. -1.
</event>
<event>
 4    1  0.5640637E-004  0.6500000E+04  0.7818608E-02  0.7223770E-01
         52   -1    0    0    0    0  0.00000000000E+00  0.00000000000E+00  0.64930732323E+04  0.65000000000E+04  0.30000000000E+03 0.  1.
        -52   -1    0    0    0    0 -0.00000000000E+00 -0.00000000000E+00 -0.64930732323E+04  0.65000000000E+04  0.30000000000E+03 0. -1.
     100001    1    1    2    0    0  0.25684507874E+03  0.24361949815E+03  0.64886077009E+04  0.65000000000E+04  0.15050000000E+03 0.  1.
     100001    1    1    2    0    0 -0.25684507874E+03 -0.24361949815E+03 -0.64886077009E+04  0.65000000000E+04  0.15050000000E+03 0. -1.
</event>
<event>
 4    1  0.5640637E-004  0.6500000E+04  0.7818608E-02  0.7223770E-01
         52   -1    0    0    0    0  0.00000000000E+00  0.00000000000E+00  0.64930732323E+04  0.65000000000E+04  0.30000000000E+03 0. -1.
        -52   -1    0    0    0    0 -0.00000000000E+00 -0.00000000000E+00 -0.64930732323E+04  0.65000000000E+04  0.30000000000E+03 0.  1.
     100001    1    1    2    0    0  0.99416848296E+03  0.34108572145E+04  0.54410506191E+04  0.65000000000E+04  0.15050000000E+03 0. -1.
     100001    1    1    2    0    0 -0.99416848296E+03 -0.34108572145E+04 -0.54410506191E+04  0.65000000000E+04  0.15050000000E+03 0.  1.
</event>
<event>
 4    1  0.5712819E-004  0.6500000E+04  0.7818608E-02  0.7223770E-01
         52   -1    0    0    0    0  0.00000000000E+00  0.00000000000E+00  0.64930732323E+04  0.65000000000E+04  0.30000000000E+03 0.  1.
        -52   -1    0    0    0    0 -0.00000000000E+00 -0.00000000000E+00 -0.64930732323E+04  0.65000000000E+04  0.30000000000E+03 0.  1.
     100001    1    1    2    0    0 -0.92402937660E+02 -0.24959777950E+03 -0.64928046633E+04  0.65000000000E+04  0.15050000000E+03 0.  1.
     100001    1    1    2    0    0  0.92402937660E+02  0.24959777950E+03  0.64928046633E+04  0.65000000000E+04  0.15050000000E+03 0.  1.
</event>
<event>
 4    1  0.5640637E-004  0.6500000E+04  0.7818608E-02  0.7223770E-01
         52   -1    0    0    0    0  0.00000000000E+00  0.00000000000E+00  0.64930732323E+04  0.65000000000E+04  0.30000000000E+03 0.  1.
        -52   -1    0    0    0    0 -0.00000000000E+00 -0.00000000000E+00 -0.64930732323E+04  0.65000000000E+04  0.30000000000E+03 0.  1.
     100001    1    1    2    0    0 -0.10174779905E+03  0.63122528950E+03  0.64667265111E+04  0.65000000000E+04  0.15050000000E+03 0.  1.
     100001    1    1    2    0    0  0.10174779905E+03 -0.63122528950E+03 -0.64667265111E+04  0.65000000000E+04  0.15050000000E+03 0.  1.
</event>
<event>
 4    1  0.5640637E-004  0.6500000E+04  0.7818608E-02  0.7223770E-01
         52   -1    0    0    0    0  0.00000000000E+00  0.00000000000E+00  0.64930732323E+04  0.65000000000E+04  0.30000000000E+03 0.  1.
        -52   -1    0    0    0    0 -0.00000000000E+00 -0.00000000000E+00 -0.64930732323E+04  0.65000000000E+04  0.30000000000E+03 0. -1.
     100001    1    1    2    0    0  0.27551960318E+04  0.16989455546E+04 -0.56346986236E+04  0.65000000000E+04  0.15050000000E+03 0. -1.
     100001    1    1    2    0    0 -0.27551960318E+04 -0.16989455546E+04  0.56346986236E+04  0.65000000000E+04  0.15050000000E+03 0.  1.
</event>
<event>
 4    1  0.5640637E-004  0.6500000E+04  0.7818608E-02  0.7223770E-01
         52   -1    0    0    0    0  0.00000000000E+00  0.00000000000E+00  0.64930732323E+04  0.65000000000E+04  0.30000000000E+03 0.  1.
        -52   -1    0    0    0    0 -0.00000000000E+00 -0.00000000000E+00 -0.64930732323E+04  0.65000000000E+04  0.30000000000E+03 0. -1.
     100001    1    1    2    0    0  0.30019954568E+04 -0.36656318951E+04 -0.44473043338E+04  0.65000000000E+04  0.15050000000E+03 0. -1.
     100001    1    1    2    0    0 -0.30019954568E+04  0.36656318951E+04  0.44473043338E+04  0.65000000000E+04  0.15050000000E+03 0.  1.
</event>
<event>
 4    1  0.5640637E-004  0.6500000E+04  0.7818608E-02  0.7223770E-01
         52   -1    0    0    0    0  0.00000000000E+00  0.00000000000E+00  0.64930732323E+04  0.65000000000E+04  0.30000000000E+03 0. -1.
        -52   -1    0    0    0    0 -0.00000000000E+00 -0.00000000000E+00 -0.64930732323E+04  0.65000000000E+04  0.30000000000E+03 0.  1.
     100001    1    1    2    0    0 -0.39636720061E+03 -0.22534939398E+04  0.60821055446E+04  0.65000000000E+04  0.15050000000E+03 0. -1.
     100001    1    1    2    0    0  0.39636720061E+03  0.22534939398E+04 -0.60821055446E+04  0.65000000000E+04  0.15050000000E+03 0.  1.
</event>
<event>
 4    1  0.5640637E-004  0.6500000E+04  0.7818608E-02  0.7223770E-01
         52   -1    0    0    0    0  0.00000000000E+00  0.00000000000E+00  0.64930732323E+04  0.65000000000E+04  0.30000000000E+03 0.  1.
        -52   -1    0    0    0    0 -0.00000000000E+00 -0.00000000000E+00 -0.64930732323E+04  0.65000000000E+04  0.30000000000E+03 0. -1.
     100001    1    1    2    0    0  0.23481948132E+03 -0.46116862178E+03  0.64776178541E+04  0.65000000000E+04  0.15050000000E+03 0.  1.
     100001    1    1    2    0    0 -0.23481948132E+03  0.46116862178E+03 -0.64776178541E+04  0.65000000000E+04  0.15050000000E+03 0. -1.
</event>
<event>
 4    1  0.5640637E-004  0.6500000E+04  0.7818608E-02  0.7223770E-01
         52   -1    0    0    0    0  0.00000000000E+00  0.00000000000E+00  0.64930732323E+04  0.65000000000E+04  0.30000000000E+03 0. -1.
        -52   -1    0    0    0    0 -0.00000000000E+00 -0.00000000000E+00 -0.64930732323E+04  0.65000000000E+04  0.30000000000E+03 0.  1.
     100001    1    1    2    0    0  0.29649435870E+04  0.70744967932E+03  0.57389872127E+04  0.65000000000E+04  0.15050000000E+03 0. -1.
     100001    1    1    2    0    0 -0.29649435870E+04 -0.70744967932E+03 -0.57389872127E+04  0.65000000000E+04  0.15050000000E+03 0.  1.
</event>
<event>
 4    1  0.5640637E-004  0.6500000E+04  0.7818608E-02  0.7223770E-01
         52   -1    0    0    0    0  0.00000000000E+00  0.00000000000E+00  0.64930732323E+04  0.65000000000E+04  0.30000000000E+03 0.  1.
        -52   -1    0    0    0    0 -0.00000000000E+00 -0.00000000000E+00 -0.64930732323E+04  0.65000000000E+04  0.30000000000E+03 0. -1.
     100001    1    1    2    0    0  0.80044706162E+02  0.67848069651E+03  0.64622446982E+04  0.65000000000E+04  0.15050000000E+03 0.  1.
     100001    1    1    2    0    0 -0.80044706162E+02 -0.67848069651E+03 -0.64622446982E+04  0.65000000000E+04  0.15050000000E+03 0. -1.
</event>
<event>
 4    1  0.5640637E-004  0.6500000E+04  0.7818608E-02  0.7223770E-01
         52   -1    0    0    0    0  0.00000000000E+00  0.00000000000E+00  0.64930732323E+04  0.65000000000E+04  0.30000000000E+03 0. -1.
        -52   -1    0    0    0    0 -0.00000000000E+00 -0.00000000000E+00 -0.64930732323E+04  0.65000000000E+04  0.30000000000E+03 0. -1.
     100001    1    1    2    0    0  0.49368467969E+03 -0.12119686109E+03  0.64783436547E+04  0.65000000000E+04  0.15050000000E+03 0. -1.
     100001    1    1    2    0    0 -0.49368467969E+03  0.12119686109E+03 -0.64783436547E+04  0.65000000000E+04  0.15050000000E+03 0. -1.
</event>
<event>
 4    1  0.5640637E-004  0.6500000E+04  0.7818608E-02  0.7223770E-01
         52   -1    0    0    0    0  0.00000000000E+00  0.00000000000E+00  0.64930732323E+04  0.65000000000E+04  0.30000000000E+03 0.  1.
        -52   -1    0    0    0    0 -0.00000000000E+00 -0.00000000000E+00 -0.64930732323E+04  0.65000000000E+04  0.30000000000E+03 0. -1.
     100001    1    1    2    0    0 -0.27183681421E+04  0.32324598434E+04  0.49385248562E+04  0.65000000000E+04  0.15050000000E+03 0.  1.
     100001    1    1    2    0    0  0.27183681421E+04 -0.32324598434E+04 -0.49385248562E+04  0.65000000000E+04  0.15050000000E+03 0. -1.
</event>
<event>
 4    1  0.5640637E-004  0.6500000E+04  0.7818608E-02  0.7223770E-01
         52   -1    0    0    0    0  0.00000000000E+00  0.00000000000E+00  0.64930732323E+04  0.65000000000E+04  0.30000000000E+03 0.  1.
        -52   -1    0    0    0    0 -0.00000000000E+00 -0.00000000000E+00 -0.64930732323E+04  0.65000000000E+04  0.30000000000E+03 0. -1.
     100001    1    1    2    0    0 -0.41157253166E+04 -0.45961540664E+04  0.20404711874E+04  0.65000000000E+04  0.15050000000E+03 0.  1.
     100001    1    1    2    0    0  0.41157253166E+04  0.45961540664E+04 -0.20404711874E+04  0.65000000000E+04  0.15050000000E+03 0. -1.
</event>
<event>
 4    1  0.5640637E-004  0.6500000E+04  0.7818608E-02  0.7223770E-01
         52   -1    0    0    0    0  0.00000000000E+00  0.00000000000E+00  0.64930732323E+04  0.65000000000E+04  0.30000000000E+03 0.  1.
        -52   -1    0    0    0    0 -0.00000000000E+00 -0.00000000000E+00 -0.64930732323E+04  0.65000000000E+04  0.30000000000E+03 0. -1.
     100001    1    1    2    0    0  0.45286198907E+03 -0.42532014625E+03 -0.64684904377E+04  0.65000000000E+04  0.15050000000E+03 0. -1.
     100001    1    1    2    0    0 -0.45286198907E+03  0.42532014625E+03  0.64684904377E+04  0.65000000000E+04  0.15050000000E+03 0.  1.
</event>
<event>
 4    1  0.5640637E-004  0.6500000E+04  0.7818608E-02  0.7223770E-01
         52   -1    0    0    0    0  0.00000000000E+00  0.00000000000E+00  0.64930732323E+04  0.65000000000E+04  0.30000000000E+03 0. -1.
        -52   -1    0    0    0    0 -0.00000000000E+00 -0.00000000000E+00 -0.64930732323E+04  0.65000000000E+04  0.30000000000E+03 0.  1.
     100001    1    1    2    0    0 -0.32210901964E+03  0.26475115674E+04  0.59257301685E+04  0.65000000000E+04  0.15050000000E+03 0. -1.
     100001    1    1    2    0    0  0.32210901964E+03 -0.26475115674E+04 -0.59257301685E+04  0.65000000000E+04  0.15050000000E+03 0.  1.
</event>
<event>
 4    1  0.5640637E-004  0.6500000E+04  0.7818608E-02  0.7223770E-01
         52   -1    0    0    0    0  0.00000000000E+00  0.00000000000E+00  0.64930732323E+04  0.65000000000E+04  0.30000000000E+03 0.  1.
        -52   -1    0    0    0    0 -0.00000000000E+00 -0.00000000000E+00 -0.64930732323E+04  0.65000000000E+04  0.30000000000E+03 0. -1.
     100001    1    1    2    0    0 -0.35743876966E+04 -0.15764597411E+04  0.51928679003E+04  0.65000000000E+04  0.15050000000E+03 0.  1.
     100001    1    1    2    0    0  0.35743876966E+04  0.15764597411E+04 -0.51928679003E+04  0.65000000000E+04  0.15050000000E+03 0. -1.
</event>
<event>
 4    1  0.5640637E-004  0.6500000E+04  0.7818608E-02  0.7223770E-01
         52   -1    0    0    0    0  0.00000000000E+00  0.00000000000E+00  0.64930732323E+04  0.65000000000E+04  0.30000000000E+03 0. -1.
        -52   -1    0    0    0    0 -0.00000000000E+00 -0.00000000000E+00 -0.64930732323E+04  0.65000000000E+04  0.30000000000E+03 0. -1.
     100001    1    1    2    0    0 -0.19686329506E+04  0.37174121852E+03  0.61817184118E+04  0.65000000000E+04  0.15050000000E+03 0. -1.
     100001    1    1    2    0    0  0.19686329506E+04 -0.37174121852E+03 -0.61817184118E+04  0.65000000000E+04  0.15050000000E+03 0. -1.
</event>
<event>
 4    1  0.5640637E-004  0.6500000E+04  0.7818608E-02  0.7223770E-01
         52   -1    0    0    0    0  0.00000000000E+00  0.00000000000E+00  0.64930732323E+04  0.65000000000E+04  0.30000000000E+03 0. -1.
        -52   -1    0    0    0    0 -0.00000000000E+00 -0.00000000000E+00 -0.64930732323E+04  0.65000000000E+04  0.30000000000E+03 0.  1.
     100001    1    1    2    0    0  0.43321906445E+03  0.63469636008E+03 -0.64526608095E+04  0.65000000000E+04  0.15050000000E+03 0.  1.
     100001    1    1    2    0    0 -0.43321906445E+03 -0.63469636008E+03  0.64526608095E+04  0.65000000000E+04  0.15050000000E+03 0. -1.
</event>
<event>
 4    1  0.5640637E-004  0.6500000E+04  0.7818608E-02  0.7223770E-01
         52   -1    0    0    0    0  0.00000000000E+00  0.00000000000E+00  0.64930732323E+04  0.65000000000E+04  0.30000000000E+03 0.  1.
        -52   -1    0    0    0    0 -0.00000000000E+00 -0.00000000000E+00 -0.64930732323E+04  0.65000000000E+04  0.30000000000E+03 0. -1.
     100001    1    1    2    0    0 -0.35250832374E+03 -0.13425722147E+04 -0.63482743702E+04  0.65000000000E+04  0.15050000000E+03 0. -1.
     100001    1    1    2    0    0  0.35250832374E+03  0.13425722147E+04  0.63482743702E+04  0.65000000000E+04  0.15050000000E+03 0.  1.
</event>
<event>
 4    1  0.5640637E-004  0.6500000E+04  0.7818608E-02  0.7223770E-01
         52   -1    0    0    0    0  0.00000000000E+00  0.00000000000E+00  0.64930732323E+04  0.65000000000E+04  0.30000000000E+03 0. -1.
        -52   -1    0    0    0    0 -0.00000000000E+00 -0.00000000000E+00 -0.64930732323E+04  0.65000000000E+04  0.30000000000E+03 0.  1.
     100001    1    1    2    0    0 -0.26439764128E+04 -0.47090347736E+04 -0.36141015453E+04  0.65000000000E+04  0.15050000000E+03 0.  1.
     100001    1    1    2    0    0  0.26439764128E+04  0.47090347736E+04  0.36141015453E+04  0.65000000000E+04  0.15050000000E+03 0. -1.
</event>
<event>
 4    1  0.5640637E-004  0.6500000E+04  0.7818608E-02  0.7223770E-01
         52   -1    0    0    0    0  0.00000000000E+00  0.00000000000E+00  0.64930732323E+04  0.65000000000E+04  0.30000000000E+03 0. -1.
        -52   -1    0    0    0    0 -0.00000000000E+00 -0.00000000000E+00 -0.64930732323E+04  0.65000000000E+04  0.30000000000E+03 0.  1.
     100001    1    1    2    0    0 -0.13438378034E+04 -0.33100206628E+04  0.54281868907E+04  0.65000000000E+04  0.15050000000E+03 0. -1.
     100001    1    1    2    0    0  0.13438378034E+04  0.33100206628E+04 -0.54281868907E+04  0.65000000000E+04  0.15050000000E+03 0.  1.
</event>
<event>
 4    1  0.5640637E-004  0.6500000E+04  0.7818608E-02  0.7223770E-01
         52   -1    0    0    0    0  0.00000000000E+00  0.00000000000E+00  0.64930732323E+04  0.65000000000E+04  0.30000000000E+03 0. -1.
        -52   -1    0    0    0    0 -0.00000000000E+00 -0.00000000000E+00 -0.64930732323E+04  0.65000000000E+04  0.30000000000E+03 0.  1.
     100001    1    1    2    0    0  0.23357172422E+03  0.88391393922E+03  0.64336218530E+04  0.65000000000E+04  0.15050000000E+03 0. -1.
     100001    1    1    2    0    0 -0.23357172422E+03 -0.88391393922E+03 -0.64336218530E+04  0.65000000000E+04  0.15050000000E+03 0.  1.
</event>
<event>
 4    1  0.5640637E-004  0.6500000E+04  0.7818608E-02  0.7223770E-01
         52   -1    0    0    0    0  0.00000000000E+00  0.00000000000E+00  0.64930732323E+04  0.65000000000E+04  0.30000000000E+03 0.  1.
        -52   -1    0    0    0    0 -0.00000000000E+00 -0.00000000000E+00 -0.64930732323E+04  0.65000000000E+04  0.30000000000E+03 0. -1.
     100001    1    1    2    0    0  0.26627173068E+03  0.52053226863E+04  0.38808587769E+04  0.65000000000E+04  0.15050000000E+03 0.  1.
     100001    1    1    2    0    0 -0.26627173068E+03 -0.52053226863E+04 -0.38808587769E+04  0.65000000000E+04  0.15050000000E+03 0. -1.
</event>
<event>
 4    1  0.5640637E-004  0.6500000E+04  0.7818608E-02  0.7223770E-01
         52   -1    0    0    0    0  0.00000000000E+00  0.00000000000E+00  0.64930732323E+04  0.65000000000E+04  0.30000000000E+03 0. -1.
        -52   -1    0    0    0    0 -0.00000000000E+00 -0.00000000000E+00 -0.64930732323E+04  0.65000000000E+04  0.30000000000E+03 0.  1.
     100001    1    1    2    0    0  0.96761353460E+03  0.40646303572E+04 -0.49769321733E+04  0.65000000000E+04  0.15050000000E+03 0.  1.
     100001    1    1    2    0    0 -0.96761353460E+03 -0.40646303572E+04  0.49769321733E+04  0.65000000000E+04  0.15050000000E+03 0. -1.
</event>
<event>
 4    1  0.5640637E-004  0.6500000E+04  0.7818608E-02  0.7223770E-01
         52   -1    0    0    0    0  0.00000000000E+00  0.00000000000E+00  0.64930732323E+04  0.65000000000E+04  0.30000000000E+03 0. -1.
        -52   -1    0    0    0    0 -0.00000000000E+00 -0.00000000000E+00 -0.64930732323E+04  0.65000000000E+04  0.30000000000E+03 0. -1.
     100001    1    1    2    0    0  0.29341836570E+03  0.17535085666E+03 -0.64892609356E+04  0.65000000000E+04  0.15050000000E+03 0. -1.
     100001    1    1    2    0    0 -0.29341836570E+03 -0.17535085666E+03  0.64892609356E+04  0.65000000000E+04  0.15050000000E+03 0. -1.
</event>
<event>
 4    1  0.5640637E-004  0.6500000E+04  0.7818608E-02  0.7223770E-01
         52   -1    0    0    0    0  0.00000000000E+00  0.00000000000E+00  0.64930732323E+04  0.65000000000E+04  0.30000000000E+03 0. -1.
        -52   -1    0    0    0    0 -0.00000000000E+00 -0.00000000000E+00 -0.64930732323E+04  0.65000000000E+04  0.30000000000E+03 0.  1.
     100001    1    1    2    0    0  0.26512002278E+04 -0.64203860473E+03 -0.58979889396E+04  0.65000000000E+04  0.15050000000E+03 0.  1.
     100001    1    1    2    0    0 -0.26512002278E+04  0.64203860473E+03  0.58979889396E+04  0.65000000000E+04  0.15050000000E+03 0. -1.
</event>
<event>
 4    1  0.5640637E-004  0.6500000E+04  0.7818608E-02  0.7223770E-01
         52   -1    0    0    0    0  0.00000000000E+00  0.00000000000E+00  0.64930732323E+04  0.65000000000E+04  0.30000000000E+03 0. -1.
        -52   -1    0    0    0    0 -0.00000000000E+00 -0.00000000000E+00 -0.64930732323E+04  0.65000000000E+04  0.30000000000E+03 0. -1.
     100001    1    1    2    0    0 -0.19708590883E+03  0.68140814595E+02  0.64949106017E+04  0.65000000000E+04  0.15050000000E+03 0. -1.
     100001    1    1    2    0    0  0.19708590883E+03 -0.68140814595E+02 -0.64949106017E+04  0.65000000000E+04  0.15050000000E+03 0. -1.
</event>
<event>
 4    1  0.5640637E-004  0.6500000E+04  0.7818608E-02  0.7223770E-01
         52   -1    0    0    0    0  0.00000000000E+00  0.00000000000E+00  0.64930732323E+04  0.65000000000E+04  0.30000000000E+03 0. -1.
        -52   -1    0    0    0    0 -0.00000000000E+00 -0.00000000000E+00 -0.64930732323E+04  0.65000000000E+04  0.30000000000E+03 0.  1.
     100001    1    1    2    0    0  0.33399177225E+03  0.32062397871E+03 -0.64817435548E+04  0.65000000000E+04  0.15050000000E+03 0.  1.
     100001    1    1    2    0    0 -0.33399177225E+03 -0.32062397871E+03  0.64817435548E+04  0.65000000000E+04  0.15050000000E+03 0. -1.
</event>
<event>
 4    1  0.5640637E-004  0.6500000E+04  0.7818608E-02  0.7223770E-01
         52   -1    0    0    0    0  0.00000000000E+00  0.00000000000E+00  0.64930732323E+04  0.65000000000E+04  0.30000000000E+03 0. -1.
        -52   -1    0    0    0    0 -0.00000000000E+00 -0.00000000000E+00 -0.64930732323E+04  0.65000000000E+04  0.30000000000E+03 0.  1.
     100001    1    1    2    0    0 -0.62693978445E+03 -0.12363708270E+04  0.63486757229E+04  0.65000000000E+04  0.15050000000E+03 0. -1.
     100001    1    1    2    0    0  0.62693978445E+03  0.12363708270E+04 -0.63486757229E+04  0.65000000000E+04  0.15050000000E+03 0.  1.
</event>
<event>
 4    1  0.5640637E-004  0.6500000E+04  0.7818608E-02  0.7223770E-01
         52   -1    0    0    0    0  0.00000000000E+00  0.00000000000E+00  0.64930732323E+04  0.65000000000E+04  0.30000000000E+03 0.  1.
        -52   -1    0    0    0    0 -0.00000000000E+00 -0.00000000000E+00 -0.64930732323E+04  0.65000000000E+04  0.30000000000E+03 0. -1.
     100001    1    1    2    0    0  0.22285203606E+04 -0.56158169273E+04  0.23924144690E+04  0.65000000000E+04  0.15050000000E+03 0.  1.
     100001    1    1    2    0    0 -0.22285203606E+04  0.56158169273E+04 -0.23924144690E+04  0.65000000000E+04  0.15050000000E+03 0. -1.
</event>
<event>
 4    1  0.5640637E-004  0.6500000E+04  0.7818608E-02  0.7223770E-01
         52   -1    0    0    0    0  0.00000000000E+00  0.00000000000E+00  0.64930732323E+04  0.65000000000E+04  0.30000000000E+03 0.  1.
        -52   -1    0    0    0    0 -0.00000000000E+00 -0.00000000000E+00 -0.64930732323E+04  0.65000000000E+04  0.30000000000E+03 0. -1.
     100001    1    1    2    0    0  0.13658556148E+04 -0.11920098279E+04  0.62402644784E+04  0.65000000000E+04  0.15050000000E+03 0.  1.
     100001    1    1    2    0    0 -0.13658556148E+04  0.11920098279E+04 -0.62402644784E+04  0.65000000000E+04  0.15050000000E+03 0. -1.
</event>
<event>
 4    1  0.5640637E-004  0.6500000E+04  0.7818608E-02  0.7223770E-01
         52   -1    0    0    0    0  0.00000000000E+00  0.00000000000E+00  0.64930732323E+04  0.65000000000E+04  0.30000000000E+03 0.  1.
        -52   -1    0    0    0    0 -0.00000000000E+00 -0.00000000000E+00 -0.64930732323E+04  0.65000000000E+04  0.30000000000E+03 0. -1.
     100001    1    1    2    0    0 -0.93223505283E+03  0.10348871738E+04  0.63472274336E+04  0.65000000000E+04  0.15050000000E+03 0.  1.
     100001    1    1    2    0    0  0.93223505283E+03 -0.10348871738E+04 -0.63472274336E+04  0.65000000000E+04  0.15050000000E+03 0. -1.
</event>
<event>
 4    1  0.5640637E-004  0.6500000E+04  0.7818608E-02  0.7223770E-01
         52   -1    0    0    0    0  0.00000000000E+00  0.00000000000E+00  0.64930732323E+04  0.65000000000E+04  0.30000000000E+03 0. -1.
        -52   -1    0    0    0    0 -0.00000000000E+00 -0.00000000000E+00 -0.64930732323E+04  0.65000000000E+04  0.30000000000E+03 0.  1.
     100001    1    1    2    0    0 -0.57626664050E+03  0.87547817604E+03 -0.64131742899E+04  0.65000000000E+04  0.15050000000E+03 0.  1.
     100001    1    1    2    0    0  0.57626664050E+03 -0.87547817604E+03  0.64131742899E+04  0.65000000000E+04  0.15050000000E+03 0. -1.
</event>
<event>
 4    1  0.5640637E-004  0.6500000E+04  0.7818608E-02  0.7223770E-01
         52   -1    0    0    0    0  0.00000000000E+00  0.00000000000E+00  0.64930732323E+04  0.65000000000E+04  0.30000000000E+03 0. -1.
        -52   -1    0    0    0    0 -0.00000000000E+00 -0.00000000000E+00 -0.64930732323E+04  0.65000000000E+04  0.30000000000E+03 0.  1.
     100001    1    1    2    0    0 -0.18306792896E+04  0.17492284029E+04  0.59846606489E+04  0.65000000000E+04  0.15050000000E+03 0. -1.
     100001    1    1    2    0    0  0.18306792896E+04 -0.17492284029E+04 -0.59846606489E+04  0.65000000000E+04  0.15050000000E+03 0.  1.
</event>
<event>
 4    1  0.5640637E-004  0.6500000E+04  0.7818608E-02  0.7223770E-01
         52   -1    0    0    0    0  0.00000000000E+00  0.00000000000E+00  0.64930732323E+04  0.65000000000E+04  0.30000000000E+03 0.  1.
        -52   -1    0    0    0    0 -0.00000000000E+00 -0.00000000000E+00 -0.64930732323E+04  0.65000000000E+04  0.30000000000E+03 0. -1.
     100001    1    1    2    0    0  0.53957369392E+04 -0.27184715946E+04 -0.23923387767E+04  0.65000000000E+04  0.15050000000E+03 0.  1.
     100001    1    1    2    0    0 -0.53957369392E+04  0.27184715946E+04  0.23923387767E+04  0.65000000000E+04  0.15050000000E+03 0. -1.
</event>
<event>
 4    1  0.5640637E-004  0.6500000E+04  0.7818608E-02  0.7223770E-01
         52   -1    0    0    0    0  0.00000000000E+00  0.00000000000E+00  0.64930732323E+04  0.65000000000E+04  0.30000000000E+03 0. -1.
        -52   -1    0    0    0    0 -0.00000000000E+00 -0.00000000000E+00 -0.64930732323E+04  0.65000000000E+04  0.30000000000E+03 0.  1.
     100001    1    1    2    0    0 -0.37636099103E+04  0.27875154221E+04  0.45047028719E+04  0.65000000000E+04  0.15050000000E+03 0. -1.
     100001    1    1    2    0    0  0.37636099103E+04 -0.27875154221E+04 -0.45047028719E+04  0.65000000000E+04  0.15050000000E+03 0.  1.
</event>
<event>
 4    1  0.5640637E-004  0.6500000E+04  0.7818608E-02  0.7223770E-01
         52   -1    0    0    0    0  0.00000000000E+00  0.00000000000E+00  0.64930732323E+04  0.65000000000E+04  0.30000000000E+03 0. -1.
        -52   -1    0    0    0    0 -0.00000000000E+00 -0.00000000000E+00 -0.64930732323E+04  0.65000000000E+04  0.30000000000E+03 0.  1.
     100001    1    1    2    0    0  0.61333608740E+04  0.12118047086E+04  0.17722199319E+04  0.65000000000E+04  0.15050000000E+03 0. -1.
     100001    1    1    2    0    0 -0.61333608740E+04 -0.12118047086E+04 -0.17722199319E+04  0.65000000000E+04  0.15050000000E+03 0.  1.
</event>
<event>
 4    1  0.5640637E-004  0.6500000E+04  0.7818608E-02  0.7223770E-01
         52   -1    0    0    0    0  0.00000000000E+00  0.00000000000E+00  0.64930732323E+04  0.65000000000E+04  0.30000000000E+03 0.  1.
        -52   -1    0    0    0    0 -0.00000000000E+00 -0.00000000000E+00 -0.64930732323E+04  0.65000000000E+04  0.30000000000E+03 0. -1.
     100001    1    1    2    0    0  0.37738277422E+04  0.26969413760E+04 -0.45510527504E+04  0.65000000000E+04  0.15050000000E+03 0. -1.
     100001    1    1    2    0    0 -0.37738277422E+04 -0.26969413760E+04  0.45510527504E+04  0.65000000000E+04  0.15050000000E+03 0.  1.
</event>
<event>
 4    1  0.5640637E-004  0.6500000E+04  0.7818608E-02  0.7223770E-01
         52   -1    0    0    0    0  0.00000000000E+00  0.00000000000E+00  0.64930732323E+04  0.65000000000E+04  0.30000000000E+03 0.  1.
        -52   -1    0    0    0    0 -0.00000000000E+00 -0.00000000000E+00 -0.64930732323E+04  0.65000000000E+04  0.30000000000E+03 0. -1.
     100001    1    1    2    0    0  0.15570122470E+03  0.19317603596E+04 -0.62025324499E+04  0.65000000000E+04  0.15050000000E+03 0. -1.
     100001    1    1    2    0    0 -0.15570122470E+03 -0.19317603596E+04  0.62025324499E+04  0.65000000000E+04  0.15050000000E+03 0.  1.
</event>
<event>
 4    1  0.5640637E-004  0.6500000E+04  0.7818608E-02  0.7223770E-01
         52   -1    0    0    0    0  0.00000000000E+00  0.00000000000E+00  0.64930732323E+04  0.65000000000E+04  0.30000000000E+03 0.  1.
        -52   -1    0    0    0    0 -0.00000000000E+00 -0.00000000000E+00 -0.64930732323E+04  0.65000000000E+04  0.30000000000E+03 0. -1.
     100001    1    1    2    0    0  0.49135622240E+04 -0.95020475888E+03  0.41450412467E+04  0.65000000000E+04  0.15050000000E+03 0.  1.
     100001    1    1    2    0    0 -0.49135622240E+04  0.95020475888E+03 -0.41450412467E+04  0.65000000000E+04  0.15050000000E+03 0. -1.
</event>
<event>
 4    1  0.6613247E-004  0.6500000E+04  0.7818608E-02  0.7223770E-01
         52   -1    0    0    0    0  0.00000000000E+00  0.00000000000E+00  0.64930732323E+04  0.65000000000E+04  0.30000000000E+03 0.  1.
        -52   -1    0    0    0    0 -0.00000000000E+00 -0.00000000000E+00 -0.64930732323E+04  0.65000000000E+04  0.30000000000E+03 0.  1.
     100001    1    1    2    0    0  0.55462083920E+02 -0.21076889187E+03  0.64946016184E+04  0.65000000000E+04  0.15050000000E+03 0.  1.
     100001    1    1    2    0    0 -0.55462083920E+02  0.21076889187E+03 -0.64946016184E+04  0.65000000000E+04  0.15050000000E+03 0.  1.
</event>
<event>
 4    1  0.5640637E-004  0.6500000E+04  0.7818608E-02  0.7223770E-01
         52   -1    0    0    0    0  0.00000000000E+00  0.00000000000E+00  0.64930732323E+04  0.65000000000E+04  0.30000000000E+03 0.  1.
        -52   -1    0    0    0    0 -0.00000000000E+00 -0.00000000000E+00 -0.64930732323E+04  0.65000000000E+04  0.30000000000E+03 0. -1.
     100001    1    1    2    0    0  0.15033828317E+03  0.12785394751E+03  0.64952599270E+04  0.65000000000E+04  0.15050000000E+03 0.  1.
     100001    1    1    2    0    0 -0.15033828317E+03 -0.12785394751E+03 -0.64952599270E+04  0.65000000000E+04  0.15050000000E+03 0. -1.
</event>
<event>
 4    1  0.5640637E-004  0.6500000E+04  0.7818608E-02  0.7223770E-01
         52   -1    0    0    0    0  0.00000000000E+00  0.00000000000E+00  0.64930732323E+04  0.65000000000E+04  0.30000000000E+03 0. -1.
        -52   -1    0    0    0    0 -0.00000000000E+00 -0.00000000000E+00 -0.64930732323E+04  0.65000000000E+04  0.30000000000E+03 0.  1.
     100001    1    1    2    0    0 -0.35952552735E+04 -0.54116408499E+04 -0.12503031707E+03  0.65000000000E+04  0.15050000000E+03 0. -1.
     100001    1    1    2    0    0  0.35952552735E+04  0.54116408499E+04  0.12503031707E+03  0.65000000000E+04  0.15050000000E+03 0.  1.
</event>
<event>
 4    1  0.5640637E-004  0.6500000E+04  0.7818608E-02  0.7223770E-01
         52   -1    0    0    0    0  0.00000000000E+00  0.00000000000E+00  0.64930732323E+04  0.65000000000E+04  0.30000000000E+03 0. -1.
        -52   -1    0    0    0    0 -0.00000000000E+00 -0.00000000000E+00 -0.64930732323E+04  0.65000000000E+04  0.30000000000E+03 0.  1.
     100001    1    1    2    0    0  0.45646207572E+04 -0.38996098900E+04 -0.24868915937E+04  0.65000000000E+04  0.15050000000E+03 0.  1.
     100001    1    1    2    0    0 -0.45646207572E+04  0.38996098900E+04  0.24868915937E+04  0.65000000000E+04  0.15050000000E+03 0. -1.
</event>
<event>
 4    1  0.5640637E-004  0.6500000E+04  0.7818608E-02  0.7223770E-01
         52   -1    0    0    0    0  0.00000000000E+00  0.00000000000E+00  0.64930732323E+04  0.65000000000E+04  0.30000000000E+03 0.  1.
        -52   -1    0    0    0    0 -0.00000000000E+00 -0.00000000000E+00 -0.64930732323E+04  0.65000000000E+04  0.30000000000E+03 0. -1.
     100001    1    1    2    0    0 -0.62622511313E+04 -0.17707453946E+03  0.17263270623E+04  0.65000000000E+04  0.15050000000E+03 0.  1.
     100001    1    1    2    0    0  0.62622511313E+04  0.17707453946E+03 -0.17263270623E+04  0.65000000000E+04  0.15050000000E+03 0. -1.
</event>
<event>
 4    1  0.5640637E-004  0.6500000E+04  0.7818608E-02  0.7223770E-01
         52   -1    0    0    0    0  0.00000000000E+00  0.00000000000E+00  0.64930732323E+04  0.65000000000E+04  0.30000000000E+03 0.  1.
        -52   -1    0    0    0    0 -0.00000000000E+00 -0.00000000000E+00 -0.64930732323E+04  0.65000000000E+04  0.30000000000E+03 0. -1.
     100001    1    1    2    0    0 -0.10319649255E+04 -0.30591039834E+03  0.64084956870E+04  0.65000000000E+04  0.15050000000E+03 0.  1.
     100001    1    1    2    0    0  0.10319649255E+04  0.30591039834E+03 -0.64084956870E+04  0.65000000000E+04  0.15050000000E+03 0. -1.
</event>
<event>
 4    1  0.5640637E-004  0.6500000E+04  0.7818608E-02  0.7223770E-01
         52   -1    0    0    0    0  0.00000000000E+00  0.00000000000E+00  0.64930732323E+04  0.65000000000E+04  0.30000000000E+03 0. -1.
        -52   -1    0    0    0    0 -0.00000000000E+00 -0.00000000000E+00 -0.64930732323E+04  0.65000000000E+04  0.30000000000E+03 0.  1.
     100001    1    1    2    0    0  0.45172665292E+03 -0.88582701724E+03 -0.64217289943E+04  0.65000000000E+04  0.15050000000E+03 0.  1.
     100001    1    1    2    0    0 -0.45172665292E+03  0.88582701724E+03  0.64217289943E+04  0.65000000000E+04  0.15050000000E+03 0. -1.
</event>
<event>
 4    1  0.5640637E-004  0.6500000E+04  0.7818608E-02  0.7223770E-01
         52   -1    0    0    0    0  0.00000000000E+00  0.00000000000E+00  0.64930732323E+04  0.65000000000E+04  0.30000000000E+03 0.  1.
        -52   -1    0    0    0    0 -0.00000000000E+00 -0.00000000000E+00 -0.64930732323E+04  0.65000000000E+04  0.30000000000E+03 0.  1.
     100001    1    1    2    0    0  0.12640765604E+02 -0.75438158460E+02  0.64978072490E+04  0.65000000000E+04  0.15050000000E+03 0.  1.
     100001    1    1    2    0    0 -0.12640765604E+02  0.75438158460E+02 -0.64978072490E+04  0.65000000000E+04  0.15050000000E+03 0.  1.
</event>
<event>
 4    1  0.5640637E-004  0.6500000E+04  0.7818608E-02  0.7223770E-01
         52   -1    0    0    0    0  0.00000000000E+00  0.00000000000E+00  0.64930732323E+04  0.65000000000E+04  0.30000000000E+03 0. -1.
        -52   -1    0    0    0    0 -0.00000000000E+00 -0.00000000000E+00 -0.64930732323E+04  0.65000000000E+04  0.30000000000E+03 0.  1.
     100001    1    1    2    0    0  0.14843929736E+04  0.97306308035E+03  0.62511659306E+04  0.65000000000E+04  0.15050000000E+03 0. -1.
     100001    1    1    2    0    0 -0.14843929736E+04 -0.97306308035E+03 -0.62511659306E+04  0.65000000000E+04  0.15050000000E+03 0.  1.
</event>
<event>
 4    1  0.5640637E-004  0.6500000E+04  0.7818608E-02  0.7223770E-01
         52   -1    0    0    0    0  0.00000000000E+00  0.00000000000E+00  0.64930732323E+04  0.65000000000E+04  0.30000000000E+03 0. -1.
        -52   -1    0    0    0    0 -0.00000000000E+00 -0.00000000000E+00 -0.64930732323E+04  0.65000000000E+04  0.30000000000E+03 0.  1.
     100001    1    1    2    0    0 -0.90722971301E+03  0.48268948538E+03  0.64164861769E+04  0.65000000000E+04  0.15050000000E+03 0. -1.
     100001    1    1    2    0    0  0.90722971301E+03 -0.48268948538E+03 -0.64164861769E+04  0.65000000000E+04  0.15050000000E+03 0.  1.
</event>
<event>
 4    1  0.5640637E-004  0.6500000E+04  0.7818608E-02  0.7223770E-01
         52   -1    0    0    0    0  0.00000000000E+00  0.00000000000E+00  0.64930732323E+04  0.65000000000E+04  0.30000000000E+03 0.  1.
        -52   -1    0    0    0    0 -0.00000000000E+00 -0.00000000000E+00 -0.64930732323E+04  0.65000000000E+04  0.30000000000E+03 0. -1.
     100001    1    1    2    0    0  0.69995762181E+03  0.39694880330E+02  0.64603276538E+04  0.65000000000E+04  0.15050000000E+03 0.  1.
     100001    1    1    2    0    0 -0.69995762181E+03 -0.39694880330E+02 -0.64603276538E+04  0.65000000000E+04  0.15050000000E+03 0. -1.
</event>
<event>
 4    1  0.5640637E-004  0.6500000E+04  0.7818608E-02  0.7223770E-01
         52   -1    0    0    0    0  0.00000000000E+00  0.00000000000E+00  0.64930732323E+04  0.65000000000E+04  0.30000000000E+03 0.  1.
        -52   -1    0    0    0    0 -0.00000000000E+00 -0.00000000000E+00 -0.64930732323E+04  0.65000000000E+04  0.30000000000E+03 0.  1.
     100001    1    1    2    0    0 -0.23676584384E+03  0.35187901352E+03 -0.64844022735E+04  0.65000000000E+04  0.15050000000E+03 0.  1.
     100001    1    1    2    0    0  0.23676584384E+03 -0.35187901352E+03  0.64844022735E+04  0.65000000000E+04  0.15050000000E+03 0.  1.
</event>
<event>
 4    1  0.5640637E-004  0.6500000E+04  0.7818608E-02  0.7223770E-01
         52   -1    0    0    0    0  0.00000000000E+00  0.00000000000E+00  0.64930732323E+04  0.65000000000E+04  0.30000000000E+03 0.  1.
        -52   -1    0    0    0    0 -0.00000000000E+00 -0.00000000000E+00 -0.64930732323E+04  0.65000000000E+04  0.30000000000E+03 0. -1.
     100001    1    1    2    0    0 -0.41684527824E+03  0.24208819653E+04  0.60160552087E+04  0.65000000000E+04  0.15050000000E+03 0.  1.
     100001    1    1    2    0    0  0.41684527824E+03 -0.24208819653E+04 -0.60160552087E+04  0.65000000000E+04  0.15050000000E+03 0. -1.
</event>
<event>
 4    1  0.5640637E-004  0.6500000E+04  0.7818608E-02  0.7223770E-01
         52   -1    0    0    0    0  0.00000000000E+00  0.00000000000E+00  0.64930732323E+04  0.65000000000E+04  0.30000000000E+03 0. -1.
        -52   -1    0    0    0    0 -0.00000000000E+00 -0.00000000000E+00 -0.64930732323E+04  0.65000000000E+04  0.30000000000E+03 0. -1.
     100001    1    1    2    0    0  0.40972302834E+02  0.16543191634E+03 -0.64960221137E+04  0.65000000000E+04  0.15050000000E+03 0. -1.
     100001    1    1    2    0    0 -0.40972302834E+02 -0.16543191634E+03  0.64960221137E+04  0.65000000000E+04  0.15050000000E+03 0. -1.
</event>
<event>
 4    1  0.5640637E-004  0.6500000E+04  0.7818608E-02  0.7223770E-01
         52   -1    0    0    0    0  0.00000000000E+00  0.00000000000E+00  0.64930732323E+04  0.65000000000E+04  0.30000000000E+03 0.  1.
        -52   -1    0    0    0    0 -0.00000000000E+00 -0.00000000000E+00 -0.64930732323E+04  0.65000000000E+04  0.30000000000E+03 0. -1.
     100001    1    1    2    0    0  0.11343272606E+04 -0.34784394674E+03  0.63890262172E+04  0.65000000000E+04  0.15050000000E+03 0.  1.
     100001    1    1    2    0    0 -0.11343272606E+04  0.34784394674E+03 -0.63890262172E+04  0.65000000000E+04  0.15050000000E+03 0. -1.
</event>
<event>
 4    1  0.5640637E-004  0.6500000E+04  0.7818608E-02  0.7223770E-01
         52   -1    0    0    0    0  0.00000000000E+00  0.00000000000E+00  0.64930732323E+04  0.65000000000E+04  0.30000000000E+03 0. -1.
        -52   -1    0    0    0    0 -0.00000000000E+00 -0.00000000000E+00 -0.64930732323E+04  0.65000000000E+04  0.30000000000E+03 0.  1.
     100001    1    1    2    0    0  0.36479921349E+02  0.13900979016E+03  0.64966680109E+04  0.65000000000E+04  0.15050000000E+03 0. -1.
     100001    1    1    2    0    0 -0.36479921349E+02 -0.13900979016E+03 -0.64966680109E+04  0.65000000000E+04  0.15050000000E+03 0.  1.
</event>
<event>
 4    1  0.5640637E-004  0.6500000E+04  0.7818608E-02  0.7223770E-01
         52   -1    0    0    0    0  0.00000000000E+00  0.00000000000E+00  0.64930732323E+04  0.65000000000E+04  0.30000000000E+03 0. -1.
        -52   -1    0    0    0    0 -0.00000000000E+00 -0.00000000000E+00 -0.64930732323E+04  0.65000000000E+04  0.30000000000E+03 0.  1.
     100001    1    1    2    0    0  0.55962564090E+03 -0.12651700188E+04 -0.63492923791E+04  0.65000000000E+04  0.15050000000E+03 0.  1.
     100001    1    1    2    0    0 -0.55962564090E+03  0.12651700188E+04  0.63492923791E+04  0.65000000000E+04  0.15050000000E+03 0. -1.
</event>
<event>
 4    1  0.5640637E-004  0.6500000E+04  0.7818608E-02  0.7223770E-01
         52   -1    0    0    0    0  0.00000000000E+00  0.00000000000E+00  0.64930732323E+04  0.65000000000E+04  0.30000000000E+03 0.  1.
        -52   -1    0    0    0    0 -0.00000000000E+00 -0.00000000000E+00 -0.64930732323E+04  0.65000000000E+04  0.30000000000E+03 0. -1.
     100001    1    1    2    0    0 -0.22561804642E+04  0.43229467286E+03  0.60786611008E+04  0.65000000000E+04  0.15050000000E+03 0.  1.
     100001    1    1    2    0    0  0.22561804642E+04 -0.43229467286E+03 -0.60786611008E+04  0.65000000000E+04  0.15050000000E+03 0. -1.
</event>
<event>
 4    1  0.5640637E-004  0.6500000E+04  0.7818608E-02  0.7223770E-01
         52   -1    0    0    0    0  0.00000000000E+00  0.00000000000E+00  0.64930732323E+04  0.65000000000E+04  0.30000000000E+03 0.  1.
        -52   -1    0    0    0    0 -0.00000000000E+00 -0.00000000000E+00 -0.64930732323E+04  0.65000000000E+04  0.30000000000E+03 0.  1.
     100001    1    1    2    0    0 -0.37210062884E+03  0.15054809604E+03 -0.64858481437E+04  0.65000000000E+04  0.15050000000E+03 0.  1.
     100001    1    1    2    0    0  0.37210062884E+03 -0.15054809604E+03  0.64858481437E+04  0.65000000000E+04  0.15050000000E+03 0.  1.
</event>
<event>
 4    1  0.5640637E-004  0.6500000E+04  0.7818608E-02  0.7223770E-01
         52   -1    0    0    0    0  0.00000000000E+00  0.00000000000E+00  0.64930732323E+04  0.65000000000E+04  0.30000000000E+03 0. -1.
        -52   -1    0    0    0    0 -0.00000000000E+00 -0.00000000000E+00 -0.64930732323E+04  0.65000000000E+04  0.30000000000E+03 0.  1.
     100001    1    1    2    0    0 -0.22918284142E+04 -0.30912275398E+04 -0.52363331222E+04  0.65000000000E+04  0.15050000000E+03 0.  1.
     100001    1    1    2    0    0  0.22918284142E+04  0.30912275398E+04  0.52363331222E+04  0.65000000000E+04  0.15050000000E+03 0. -1.
</event>
<event>
 4    1  0.5640637E-004  0.6500000E+04  0.7818608E-02  0.7223770E-01
         52   -1    0    0    0    0  0.00000000000E+00  0.00000000000E+00  0.64930732323E+04  0.65000000000E+04  0.30000000000E+03 0. -1.
        -52   -1    0    0    0    0 -0.00000000000E+00 -0.00000000000E+00 -0.64930732323E+04  0.65000000000E+04  0.30000000000E+03 0.  1.
     100001    1    1    2    0    0 -0.37058827183E+04  0.29877589044E+04  0.44234691993E+04  0.65000000000E+04  0.15050000000E+03 0. -1.
     100001    1    1    2    0    0  0.37058827183E+04 -0.29877589044E+04 -0.44234691993E+04  0.65000000000E+04  0.15050000000E+03 0.  1.
</event>
<event>
 4    1  0.5640637E-004  0.6500000E+04  0.7818608E-02  0.7223770E-01
         52   -1    0    0    0    0  0.00000000000E+00  0.00000000000E+00  0.64930732323E+04  0.65000000000E+04  0.30000000000E+03 0. -1.
        -52   -1    0    0    0    0 -0.00000000000E+00 -0.00000000000E+00 -0.64930732323E+04  0.65000000000E+04  0.30000000000E+03 0.  1.
     100001    1    1    2    0    0  0.72197587597E+03 -0.19560034418E+03 -0.64550632135E+04  0.65000000000E+04  0.15050000000E+03 0.  1.
     100001    1    1    2    0    0 -0.72197587597E+03  0.19560034418E+03  0.64550632135E+04  0.65000000000E+04  0.15050000000E+03 0. -1.
</event>
<event>
 4    1  0.5640637E-004  0.6500000E+04  0.7818608E-02  0.7223770E-01
         52   -1    0    0    0    0  0.00000000000E+00  0.00000000000E+00  0.64930732323E+04  0.65000000000E+04  0.30000000000E+03 0.  1.
        -52   -1    0    0    0    0 -0.00000000000E+00 -0.00000000000E+00 -0.64930732323E+04  0.65000000000E+04  0.30000000000E+03 0. -1.
     100001    1    1    2    0    0  0.18548749358E+04 -0.22606234640E+03 -0.62237998472E+04  0.65000000000E+04  0.15050000000E+03 0. -1.
     100001    1    1    2    0    0 -0.18548749358E+04  0.22606234640E+03  0.62237998472E+04  0.65000000000E+04  0.15050000000E+03 0.  1.
</event>
<event>
 4    1  0.5640637E-004  0.6500000E+04  0.7818608E-02  0.7223770E-01
         52   -1    0    0    0    0  0.00000000000E+00  0.00000000000E+00  0.64930732323E+04  0.65000000000E+04  0.30000000000E+03 0.  1.
        -52   -1    0    0    0    0 -0.00000000000E+00 -0.00000000000E+00 -0.64930732323E+04  0.65000000000E+04  0.30000000000E+03 0. -1.
     100001    1    1    2    0    0  0.23191167800E+04 -0.90327525986E+03 -0.60027611077E+04  0.65000000000E+04  0.15050000000E+03 0. -1.
     100001    1    1    2    0    0 -0.23191167800E+04  0.90327525986E+03  0.60027611077E+04  0.65000000000E+04  0.15050000000E+03 0.  1.
</event>
<event>
 4    1  0.5640637E-004  0.6500000E+04  0.7818608E-02  0.7223770E-01
         52   -1    0    0    0    0  0.00000000000E+00  0.00000000000E+00  0.64930732323E+04  0.65000000000E+04  0.30000000000E+03 0. -1.
        -52   -1    0    0    0    0 -0.00000000000E+00 -0.00000000000E+00 -0.64930732323E+04  0.65000000000E+04  0.30000000000E+03 0.  1.
     100001    1    1    2    0    0 -0.25960373286E+04 -0.56347602317E+04  0.19332400446E+04  0.65000000000E+04  0.15050000000E+03 0. -1.
     100001    1    1    2    0    0  0.25960373286E+04  0.56347602317E+04 -0.19332400446E+04  0.65000000000E+04  0.15050000000E+03 0.  1.
</event>
<event>
 4    1  0.5640637E-004  0.6500000E+04  0.7818608E-02  0.7223770E-01
         52   -1    0    0    0    0  0.00000000000E+00  0.00000000000E+00  0.64930732323E+04  0.65000000000E+04  0.30000000000E+03 0.  1.
        -52   -1    0    0    0    0 -0.00000000000E+00 -0.00000000000E+00 -0.64930732323E+04  0.65000000000E+04  0.30000000000E+03 0. -1.
     100001    1    1    2    0    0  0.38704670278E+03  0.17243675347E+02 -0.64866977158E+04  0.65000000000E+04  0.15050000000E+03 0. -1.
     100001    1    1    2    0    0 -0.38704670278E+03 -0.17243675347E+02  0.64866977158E+04  0.65000000000E+04  0.15050000000E+03 0.  1.
</event>
<event>
 4    1  0.5640637E-004  0.6500000E+04  0.7818608E-02  0.7223770E-01
         52   -1    0    0    0    0  0.00000000000E+00  0.00000000000E+00  0.64930732323E+04  0.65000000000E+04  0.30000000000E+03 0.  1.
        -52   -1    0    0    0    0 -0.00000000000E+00 -0.00000000000E+00 -0.64930732323E+04  0.65000000000E+04  0.30000000000E+03 0. -1.
     100001    1    1    2    0    0 -0.10321726537E+04  0.15123013320E+04  0.62349750636E+04  0.65000000000E+04  0.15050000000E+03 0.  1.
     100001    1    1    2    0    0  0.10321726537E+04 -0.15123013320E+04 -0.62349750636E+04  0.65000000000E+04  0.15050000000E+03 0. -1.
</event>
<event>
 4    1  0.5640637E-004  0.6500000E+04  0.7818608E-02  0.7223770E-01
         52   -1    0    0    0    0  0.00000000000E+00  0.00000000000E+00  0.64930732323E+04  0.65000000000E+04  0.30000000000E+03 0.  1.
        -52   -1    0    0    0    0 -0.00000000000E+00 -0.00000000000E+00 -0.64930732323E+04  0.65000000000E+04  0.30000000000E+03 0. -1.
     100001    1    1    2    0    0 -0.22943010100E+03 -0.72623393776E+03 -0.64534716120E+04  0.65000000000E+04  0.15050000000E+03 0. -1.
     100001    1    1    2    0    0  0.22943010100E+03  0.72623393776E+03  0.64534716120E+04  0.65000000000E+04  0.15050000000E+03 0.  1.
</event>
<event>
 4    1  0.5640637E-004  0.6500000E+04  0.7818608E-02  0.7223770E-01
         52   -1    0    0    0    0  0.00000000000E+00  0.00000000000E+00  0.64930732323E+04  0.65000000000E+04  0.30000000000E+03 0. -1.
        -52   -1    0    0    0    0 -0.00000000000E+00 -0.00000000000E+00 -0.64930732323E+04  0.65000000000E+04  0.30000000000E+03 0.  1.
     100001    1    1    2    0    0 -0.29480633981E+04 -0.17956935992E+04  0.55056113601E+04  0.65000000000E+04  0.15050000000E+03 0. -1.
     100001    1    1    2    0    0  0.29480633981E+04  0.17956935992E+04 -0.55056113601E+04  0.65000000000E+04  0.15050000000E+03 0.  1.
</event>
<event>
 4    1  0.5640637E-004  0.6500000E+04  0.7818608E-02  0.7223770E-01
         52   -1    0    0    0    0  0.00000000000E+00  0.00000000000E+00  0.64930732323E+04  0.65000000000E+04  0.30000000000E+03 0.  1.
        -52   -1    0    0    0    0 -0.00000000000E+00 -0.00000000000E+00 -0.64930732323E+04  0.65000000000E+04  0.30000000000E+03 0. -1.
     100001    1    1    2    0    0 -0.81334372672E+02  0.54609067921E+04  0.35212542478E+04  0.65000000000E+04  0.15050000000E+03 0.  1.
     100001    1    1    2    0    0  0.81334372672E+02 -0.54609067921E+04 -0.35212542478E+04  0.65000000000E+04  0.15050000000E+03 0. -1.
</event>
<event>
 4    1  0.5640637E-004  0.6500000E+04  0.7818608E-02  0.7223770E-01
         52   -1    0    0    0    0  0.00000000000E+00  0.00000000000E+00  0.64930732323E+04  0.65000000000E+04  0.30000000000E+03 0. -1.
        -52   -1    0    0    0    0 -0.00000000000E+00 -0.00000000000E+00 -0.64930732323E+04  0.65000000000E+04  0.30000000000E+03 0.  1.
     100001    1    1    2    0    0  0.30531935899E+03  0.15073777435E+04 -0.63136314572E+04  0.65000000000E+04  0.15050000000E+03 0.  1.
     100001    1    1    2    0    0 -0.30531935899E+03 -0.15073777435E+04  0.63136314572E+04  0.65000000000E+04  0.15050000000E+03 0. -1.
</event>
<event>
 4    1  0.5640637E-004  0.6500000E+04  0.7818608E-02  0.7223770E-01
         52   -1    0    0    0    0  0.00000000000E+00  0.00000000000E+00  0.64930732323E+04  0.65000000000E+04  0.30000000000E+03 0. -1.
        -52   -1    0    0    0    0 -0.00000000000E+00 -0.00000000000E+00 -0.64930732323E+04  0.65000000000E+04  0.30000000000E+03 0.  1.
     100001    1    1    2    0    0  0.12348301117E+04 -0.24780619385E+04 -0.58789245083E+04  0.65000000000E+04  0.15050000000E+03 0.  1.
     100001    1    1    2    0    0 -0.12348301117E+04  0.24780619385E+04  0.58789245083E+04  0.65000000000E+04  0.15050000000E+03 0. -1.
</event>
<event>
 4    1  0.5640637E-004  0.6500000E+04  0.7818608E-02  0.7223770E-01
         52   -1    0    0    0    0  0.00000000000E+00  0.00000000000E+00  0.64930732323E+04  0.65000000000E+04  0.30000000000E+03 0. -1.
        -52   -1    0    0    0    0 -0.00000000000E+00 -0.00000000000E+00 -0.64930732323E+04  0.65000000000E+04  0.30000000000E+03 0. -1.
     100001    1    1    2    0    0 -0.53439893014E+03  0.75751753055E+03 -0.64317909422E+04  0.65000000000E+04  0.15050000000E+03 0. -1.
     100001    1    1    2    0    0  0.53439893014E+03 -0.75751753055E+03  0.64317909422E+04  0.65000000000E+04  0.15050000000E+03 0. -1.
</event>
<event>
 4    1  0.5640637E-004  0.6500000E+04  0.7818608E-02  0.7223770E-01
         52   -1    0    0    0    0  0.00000000000E+00  0.00000000000E+00  0.64930732323E+04  0.65000000000E+04  0.30000000000E+03 0.  1.
        -52   -1    0    0    0    0 -0.00000000000E+00 -0.00000000000E+00 -0.64930732323E+04  0.65000000000E+04  0.30000000000E+03 0. -1.
     100001    1    1    2    0    0 -0.66406242804E+03 -0.38391144696E+03  0.64528275076E+04  0.65000000000E+04  0.15050000000E+03 0.  1.
     100001    1    1    2    0    0  0.66406242804E+03  0.38391144696E+03 -0.64528275076E+04  0.65000000000E+04  0.15050000000E+03 0. -1.
</event>
<event>
 4    1  0.7568163E-004  0.6500000E+04  0.7818608E-02  0.7223770E-01
         52   -1    0    0    0    0  0.00000000000E+00  0.00000000000E+00  0.64930732323E+04  0.65000000000E+04  0.30000000000E+03 0. -1.
        -52   -1    0    0    0    0 -0.00000000000E+00 -0.00000000000E+00 -0.64930732323E+04  0.65000000000E+04  0.30000000000E+03 0. -1.
     100001    1    1    2    0    0 -0.16512977687E+03 -0.25041787240E+02  0.64961107453E+04  0.65000000000E+04  0.15050000000E+03 0. -1.
     100001    1    1    2    0    0  0.16512977687E+03  0.25041787240E+02 -0.64961107453E+04  0.65000000000E+04  0.15050000000E+03 0. -1.
</event>
<event>
 4    1  0.5640637E-004  0.6500000E+04  0.7818608E-02  0.7223770E-01
         52   -1    0    0    0    0  0.00000000000E+00  0.00000000000E+00  0.64930732323E+04  0.65000000000E+04  0.30000000000E+03 0.  1.
        -52   -1    0    0    0    0 -0.00000000000E+00 -0.00000000000E+00 -0.64930732323E+04  0.65000000000E+04  0.30000000000E+03 0. -1.
     100001    1    1    2    0    0  0.83609653410E+03 -0.90895151255E+03 -0.63798197062E+04  0.65000000000E+04  0.15050000000E+03 0. -1.
     100001    1    1    2    0    0 -0.83609653410E+03  0.90895151255E+03  0.63798197062E+04  0.65000000000E+04  0.15050000000E+03 0.  1.
</event>
<event>
 4    1  0.5640637E-004  0.6500000E+04  0.7818608E-02  0.7223770E-01
         52   -1    0    0    0    0  0.00000000000E+00  0.00000000000E+00  0.64930732323E+04  0.65000000000E+04  0.30000000000E+03 0. -1.
        -52   -1    0    0    0    0 -0.00000000000E+00 -0.00000000000E+00 -0.64930732323E+04  0.65000000000E+04  0.30000000000E+03 0.  1.
     100001    1    1    2    0    0  0.11284872530E+04  0.67067010754E+03 -0.63642806252E+04  0.65000000000E+04  0.15050000000E+03 0.  1.
     100001    1    1    2    0    0 -0.11284872530E+04 -0.67067010754E+03  0.63642806252E+04  0.65000000000E+04  0.15050000000E+03 0. -1.
</event>
<event>
 4    1  0.5640637E-004  0.6500000E+04  0.7818608E-02  0.7223770E-01
         52   -1    0    0    0    0  0.00000000000E+00  0.00000000000E+00  0.64930732323E+04  0.65000000000E+04  0.30000000000E+03 0.  1.
        -52   -1    0    0    0    0 -0.00000000000E+00 -0.00000000000E+00 -0.64930732323E+04  0.65000000000E+04  0.30000000000E+03 0. -1.
     100001    1    1    2    0    0 -0.85331448316E+02  0.54233617883E+03 -0.64750243060E+04  0.65000000000E+04  0.15050000000E+03 0. -1.
     100001    1    1    2    0    0  0.85331448316E+02 -0.54233617883E+03  0.64750243060E+04  0.65000000000E+04  0.15050000000E+03 0.  1.
</event>
<event>
 4    1  0.5640637E-004  0.6500000E+04  0.7818608E-02  0.7223770E-01
         52   -1    0    0    0    0  0.00000000000E+00  0.00000000000E+00  0.64930732323E+04  0.65000000000E+04  0.30000000000E+03 0.  1.
        -52   -1    0    0    0    0 -0.00000000000E+00 -0.00000000000E+00 -0.64930732323E+04  0.65000000000E+04  0.30000000000E+03 0. -1.
     100001    1    1    2    0    0  0.20072524318E+04 -0.84381186725E+03 -0.61226031194E+04  0.65000000000E+04  0.15050000000E+03 0. -1.
     100001    1    1    2    0    0 -0.20072524318E+04  0.84381186725E+03  0.61226031194E+04  0.65000000000E+04  0.15050000000E+03 0.  1.
</event>
<event>
 4    1  0.5640637E-004  0.6500000E+04  0.7818608E-02  0.7223770E-01
         52   -1    0    0    0    0  0.00000000000E+00  0.00000000000E+00  0.64930732323E+04  0.65000000000E+04  0.30000000000E+03 0. -1.
        -52   -1    0    0    0    0 -0.00000000000E+00 -0.00000000000E+00 -0.64930732323E+04  0.65000000000E+04  0.30000000000E+03 0.  1.
     100001    1    1    2    0    0 -0.58741246341E+03  0.42892926510E+03 -0.64574233277E+04  0.65000000000E+04  0.15050000000E+03 0.  1.
     100001    1    1    2    0    0  0.58741246341E+03 -0.42892926510E+03  0.64574233277E+04  0.65000000000E+04  0.15050000000E+03 0. -1.
</event>
<event>
 4    1  0.5640637E-004  0.6500000E+04  0.7818608E-02  0.7223770E-01
         52   -1    0    0    0    0  0.00000000000E+00  0.00000000000E+00  0.64930732323E+04  0.65000000000E+04  0.30000000000E+03 0. -1.
        -52   -1    0    0    0    0 -0.00000000000E+00 -0.00000000000E+00 -0.64930732323E+04  0.65000000000E+04  0.30000000000E+03 0.  1.
     100001    1    1    2    0    0 -0.23510342224E+03  0.38038557570E+03  0.64828529942E+04  0.65000000000E+04  0.15050000000E+03 0. -1.
     100001    1    1    2    0    0  0.23510342224E+03 -0.38038557570E+03 -0.64828529942E+04  0.65000000000E+04  0.15050000000E+03 0.  1.
</event>
<event>
 4    1  0.5640637E-004  0.6500000E+04  0.7818608E-02  0.7223770E-01
         52   -1    0    0    0    0  0.00000000000E+00  0.00000000000E+00  0.64930732323E+04  0.65000000000E+04  0.30000000000E+03 0.  1.
        -52   -1    0    0    0    0 -0.00000000000E+00 -0.00000000000E+00 -0.64930732323E+04  0.65000000000E+04  0.30000000000E+03 0. -1.
     100001    1    1    2    0    0  0.29874067588E+04  0.41820414873E+04 -0.39765914558E+04  0.65000000000E+04  0.15050000000E+03 0. -1.
     100001    1    1    2    0    0 -0.29874067588E+04 -0.41820414873E+04  0.39765914558E+04  0.65000000000E+04  0.15050000000E+03 0.  1.
</event>
<event>
 4    1  0.5640637E-004  0.6500000E+04  0.7818608E-02  0.7223770E-01
         52   -1    0    0    0    0  0.00000000000E+00  0.00000000000E+00  0.64930732323E+04  0.65000000000E+04  0.30000000000E+03 0.  1.
        -52   -1    0    0    0    0 -0.00000000000E+00 -0.00000000000E+00 -0.64930732323E+04  0.65000000000E+04  0.30000000000E+03 0. -1.
     100001    1    1    2    0    0  0.28565791025E+04  0.66001790941E+03  0.57992828816E+04  0.65000000000E+04  0.15050000000E+03 0.  1.
     100001    1    1    2    0    0 -0.28565791025E+04 -0.66001790941E+03 -0.57992828816E+04  0.65000000000E+04  0.15050000000E+03 0. -1.
</event>
<event>
 4    1  0.7244643E-004  0.6500000E+04  0.7818608E-02  0.7223770E-01
         52   -1    0    0    0    0  0.00000000000E+00  0.00000000000E+00  0.64930732323E+04  0.65000000000E+04  0.30000000000E+03 0. -1.
        -52   -1    0    0    0    0 -0.00000000000E+00 -0.00000000000E+00 -0.64930732323E+04  0.65000000000E+04  0.30000000000E+03 0. -1.
     100001    1    1    2    0    0  0.94379309660E+02  0.10070525912E+03  0.64967915733E+04  0.65000000000E+04  0.15050000000E+03 0. -1.
     100001    1    1    2    0    0 -0.94379309660E+02 -0.10070525912E+03 -0.64967915733E+04  0.65000000000E+04  0.15050000000E+03 0. -1.
</event>
<event>
 4    1  0.5640637E-004  0.6500000E+04  0.7818608E-02  0.7223770E-01
         52   -1    0    0    0    0  0.00000000000E+00  0.00000000000E+00  0.64930732323E+04  0.65000000000E+04  0.30000000000E+03 0.  1.
        -52   -1    0    0    0    0 -0.00000000000E+00 -0.00000000000E+00 -0.64930732323E+04  0.65000000000E+04  0.30000000000E+03 0. -1.
     100001    1    1    2    0    0  0.19772936417E+04  0.57370406290E+04 -0.23246557650E+04  0.65000000000E+04  0.15050000000E+03 0. -1.
     100001    1    1    2    0    0 -0.19772936417E+04 -0.57370406290E+04  0.23246557650E+04  0.65000000000E+04  0.15050000000E+03 0.  1.
</event>
<event>
 4    1  0.5640637E-004  0.6500000E+04  0.7818608E-02  0.7223770E-01
         52   -1    0    0    0    0  0.00000000000E+00  0.00000000000E+00  0.64930732323E+04  0.65000000000E+04  0.30000000000E+03 0.  1.
        -52   -1    0    0    0    0 -0.00000000000E+00 -0.00000000000E+00 -0.64930732323E+04  0.65000000000E+04  0.30000000000E+03 0.  1.
     100001    1    1    2    0    0  0.38108104122E+03  0.27441381019E+03  0.64812671640E+04  0.65000000000E+04  0.15050000000E+03 0.  1.
     100001    1    1    2    0    0 -0.38108104122E+03 -0.27441381019E+03 -0.64812671640E+04  0.65000000000E+04  0.15050000000E+03 0.  1.
</event>
<event>
 4    1  0.5640637E-004  0.6500000E+04  0.7818608E-02  0.7223770E-01
         52   -1    0    0    0    0  0.00000000000E+00  0.00000000000E+00  0.64930732323E+04  0.65000000000E+04  0.30000000000E+03 0.  1.
        -52   -1    0    0    0    0 -0.00000000000E+00 -0.00000000000E+00 -0.64930732323E+04  0.65000000000E+04  0.30000000000E+03 0. -1.
     100001    1    1    2    0    0  0.29110606560E+03  0.59205329036E+03 -0.64646794128E+04  0.65000000000E+04  0.15050000000E+03 0. -1.
     100001    1    1    2    0    0 -0.29110606560E+03 -0.59205329036E+03  0.64646794128E+04  0.65000000000E+04  0.15050000000E+03 0.  1.
</event>
<event>
 4    1  0.5640637E-004  0.6500000E+04  0.7818608E-02  0.7223770E-01
         52   -1    0    0    0    0  0.00000000000E+00  0.00000000000E+00  0.64930732323E+04  0.65000000000E+04  0.30000000000E+03 0. -1.
        -52   -1    0    0    0    0 -0.00000000000E+00 -0.00000000000E+00 -0.64930732323E+04  0.65000000000E+04  0.30000000000E+03 0.  1.
     100001    1    1    2    0    0 -0.32383637223E+04  0.34480535954E+04  0.44554771412E+04  0.65000000000E+04  0.15050000000E+03 0. -1.
     100001    1    1    2    0    0  0.32383637223E+04 -0.34480535954E+04 -0.44554771412E+04  0.65000000000E+04  0.15050000000E+03 0.  1.
</event>
<event>
 4    1  0.5640637E-004  0.6500000E+04  0.7818608E-02  0.7223770E-01
         52   -1    0    0    0    0  0.00000000000E+00  0.00000000000E+00  0.64930732323E+04  0.65000000000E+04  0.30000000000E+03 0.  1.
        -52   -1    0    0    0    0 -0.00000000000E+00 -0.00000000000E+00 -0.64930732323E+04  0.65000000000E+04  0.30000000000E+03 0. -1.
     100001    1    1    2    0    0  0.13448385580E+03  0.20545525210E+03 -0.64936162484E+04  0.65000000000E+04  0.15050000000E+03 0. -1.
     100001    1    1    2    0    0 -0.13448385580E+03 -0.20545525210E+03  0.64936162484E+04  0.65000000000E+04  0.15050000000E+03 0.  1.
</event>
<event>
 4    1  0.5640637E-004  0.6500000E+04  0.7818608E-02  0.7223770E-01
         52   -1    0    0    0    0  0.00000000000E+00  0.00000000000E+00  0.64930732323E+04  0.65000000000E+04  0.30000000000E+03 0. -1.
        -52   -1    0    0    0    0 -0.00000000000E+00 -0.00000000000E+00 -0.64930732323E+04  0.65000000000E+04  0.30000000000E+03 0.  1.
     100001    1    1    2    0    0 -0.13188374992E+03 -0.73371126017E+03 -0.64553562422E+04  0.65000000000E+04  0.15050000000E+03 0.  1.
     100001    1    1    2    0    0  0.13188374992E+03  0.73371126017E+03  0.64553562422E+04  0.65000000000E+04  0.15050000000E+03 0. -1.
</event>
<event>
 4    1  0.5640637E-004  0.6500000E+04  0.7818608E-02  0.7223770E-01
         52   -1    0    0    0    0  0.00000000000E+00  0.00000000000E+00  0.64930732323E+04  0.65000000000E+04  0.30000000000E+03 0. -1.
        -52   -1    0    0    0    0 -0.00000000000E+00 -0.00000000000E+00 -0.64930732323E+04  0.65000000000E+04  0.30000000000E+03 0.  1.
     100001    1    1    2    0    0  0.52550496595E+03  0.87905988824E+03  0.64170435555E+04  0.65000000000E+04  0.15050000000E+03 0. -1.
     100001    1    1    2    0    0 -0.52550496595E+03 -0.87905988824E+03 -0.64170435555E+04  0.65000000000E+04  0.15050000000E+03 0.  1.
</event>
<event>
 4    1  0.5640637E-004  0.6500000E+04  0.7818608E-02  0.7223770E-01
         52   -1    0    0    0    0  0.00000000000E+00  0.00000000000E+00  0.64930732323E+04  0.65000000000E+04  0.30000000000E+03 0.  1.
        -52   -1    0    0    0    0 -0.00000000000E+00 -0.00000000000E+00 -0.64930732323E+04  0.65000000000E+04  0.30000000000E+03 0. -1.
     100001    1    1    2    0    0  0.10069324612E+04 -0.26552171946E+04 -0.58449344238E+04  0.65000000000E+04  0.15050000000E+03 0. -1.
     100001    1    1    2    0    0 -0.10069324612E+04  0.26552171946E+04  0.58449344238E+04  0.65000000000E+04  0.15050000000E+03 0.  1.
</event>
<event>
 4    1  0.5640637E-004  0.6500000E+04  0.7818608E-02  0.7223770E-01
         52   -1    0    0    0    0  0.00000000000E+00  0.00000000000E+00  0.64930732323E+04  0.65000000000E+04  0.30000000000E+03 0. -1.
        -52   -1    0    0    0    0 -0.00000000000E+00 -0.00000000000E+00 -0.64930732323E+04  0.65000000000E+04  0.30000000000E+03 0.  1.
     100001    1    1    2    0    0 -0.16931722805E+04  0.11957931000E+04 -0.61587820420E+04  0.65000000000E+04  0.15050000000E+03 0.  1.
     100001    1    1    2    0    0  0.16931722805E+04 -0.11957931000E+04  0.61587820420E+04  0.65000000000E+04  0.15050000000E+03 0. -1.
</event>
<event>
 4    1  0.5640637E-004  0.6500000E+04  0.7818608E-02  0.7223770E-01
         52   -1    0    0    0    0  0.00000000000E+00  0.00000000000E+00  0.64930732323E+04  0.65000000000E+04  0.30000000000E+03 0.  1.
        -52   -1    0    0    0    0 -0.00000000000E+00 -0.00000000000E+00 -0.64930732323E+04  0.65000000000E+04  0.30000000000E+03 0. -1.
     100001    1    1    2    0    0  0.42181489812E+04  0.21676734997E+04 -0.44424948533E+04  0.65000000000E+04  0.15050000000E+03 0. -1.
     100001    1    1    2    0    0 -0.42181489812E+04 -0.21676734997E+04  0.44424948533E+04  0.65000000000E+04  0.15050000000E+03 0.  1.
</event>
<event>
 4    1  0.5640637E-004  0.6500000E+04  0.7818608E-02  0.7223770E-01
         52   -1    0    0    0    0  0.00000000000E+00  0.00000000000E+00  0.64930732323E+04  0.65000000000E+04  0.30000000000E+03 0.  1.
        -52   -1    0    0    0    0 -0.00000000000E+00 -0.00000000000E+00 -0.64930732323E+04  0.65000000000E+04  0.30000000000E+03 0. -1.
     100001    1    1    2    0    0  0.29253266562E+04  0.48094537514E+04  0.32463777226E+04  0.65000000000E+04  0.15050000000E+03 0.  1.
     100001    1    1    2    0    0 -0.29253266562E+04 -0.48094537514E+04 -0.32463777226E+04  0.65000000000E+04  0.15050000000E+03 0. -1.
</event>
<event>
 4    1  0.5640637E-004  0.6500000E+04  0.7818608E-02  0.7223770E-01
         52   -1    0    0    0    0  0.00000000000E+00  0.00000000000E+00  0.64930732323E+04  0.65000000000E+04  0.30000000000E+03 0.  1.
        -52   -1    0    0    0    0 -0.00000000000E+00 -0.00000000000E+00 -0.64930732323E+04  0.65000000000E+04  0.30000000000E+03 0. -1.
     100001    1    1    2    0    0 -0.90425866677E+03 -0.21695747085E+03 -0.64313758613E+04  0.65000000000E+04  0.15050000000E+03 0. -1.
     100001    1    1    2    0    0  0.90425866677E+03  0.21695747085E+03  0.64313758613E+04  0.65000000000E+04  0.15050000000E+03 0.  1.
</event>
<event>
 4    1  0.5640637E-004  0.6500000E+04  0.7818608E-02  0.7223770E-01
         52   -1    0    0    0    0  0.00000000000E+00  0.00000000000E+00  0.64930732323E+04  0.65000000000E+04  0.30000000000E+03 0.  1.
        -52   -1    0    0    0    0 -0.00000000000E+00 -0.00000000000E+00 -0.64930732323E+04  0.65000000000E+04  0.30000000000E+03 0. -1.
     100001    1    1    2    0    0  0.20177739835E+04  0.31858680690E+04  0.52920867858E+04  0.65000000000E+04  0.15050000000E+03 0.  1.
     100001    1    1    2    0    0 -0.20177739835E+04 -0.31858680690E+04 -0.52920867858E+04  0.65000000000E+04  0.15050000000E+03 0. -1.
</event>
<event>
 4    1  0.5640637E-004  0.6500000E+04  0.7818608E-02  0.7223770E-01
         52   -1    0    0    0    0  0.00000000000E+00  0.00000000000E+00  0.64930732323E+04  0.65000000000E+04  0.30000000000E+03 0. -1.
        -52   -1    0    0    0    0 -0.00000000000E+00 -0.00000000000E+00 -0.64930732323E+04  0.65000000000E+04  0.30000000000E+03 0.  1.
     100001    1    1    2    0    0  0.23011133301E+04 -0.15629708921E+04 -0.58727633345E+04  0.65000000000E+04  0.15050000000E+03 0.  1.
     100001    1    1    2    0    0 -0.23011133301E+04  0.15629708921E+04  0.58727633345E+04  0.65000000000E+04  0.15050000000E+03 0. -1.
</event>
<event>
 4    1  0.5640637E-004  0.6500000E+04  0.7818608E-02  0.7223770E-01
         52   -1    0    0    0    0  0.00000000000E+00  0.00000000000E+00  0.64930732323E+04  0.65000000000E+04  0.30000000000E+03 0.  1.
        -52   -1    0    0    0    0 -0.00000000000E+00 -0.00000000000E+00 -0.64930732323E+04  0.65000000000E+04  0.30000000000E+03 0. -1.
     100001    1    1    2    0    0  0.37791020169E+03 -0.56140846376E+03 -0.64629214885E+04  0.65000000000E+04  0.15050000000E+03 0. -1.
     100001    1    1    2    0    0 -0.37791020169E+03  0.56140846376E+03  0.64629214885E+04  0.65000000000E+04  0.15050000000E+03 0.  1.
</event>
<event>
 4    1  0.5640637E-004  0.6500000E+04  0.7818608E-02  0.7223770E-01
         52   -1    0    0    0    0  0.00000000000E+00  0.00000000000E+00  0.64930732323E+04  0.65000000000E+04  0.30000000000E+03 0.  1.
        -52   -1    0    0    0    0 -0.00000000000E+00 -0.00000000000E+00 -0.64930732323E+04  0.65000000000E+04  0.30000000000E+03 0. -1.
     100001    1    1    2    0    0  0.10301546287E+04 -0.81343398922E+03 -0.63643111439E+04  0.65000000000E+04  0.15050000000E+03 0. -1.
     100001    1    1    2    0    0 -0.10301546287E+04  0.81343398922E+03  0.63643111439E+04  0.65000000000E+04  0.15050000000E+03 0.  1.
</event>
<event>
 4    1  0.5640637E-004  0.6500000E+04  0.7818608E-02  0.7223770E-01
         52   -1    0    0    0    0  0.00000000000E+00  0.00000000000E+00  0.64930732323E+04  0.65000000000E+04  0.30000000000E+03 0.  1.
        -52   -1    0    0    0    0 -0.00000000000E+00 -0.00000000000E+00 -0.64930732323E+04  0.65000000000E+04  0.30000000000E+03 0. -1.
     100001    1    1    2    0    0 -0.12627991915E+04 -0.93071019398E+03  0.63060658486E+04  0.65000000000E+04  0.15050000000E+03 0.  1.
     100001    1    1    2    0    0  0.12627991915E+04  0.93071019398E+03 -0.63060658486E+04  0.65000000000E+04  0.15050000000E+03 0. -1.
</event>
<event>
 4    1  0.5640637E-004  0.6500000E+04  0.7818608E-02  0.7223770E-01
         52   -1    0    0    0    0  0.00000000000E+00  0.00000000000E+00  0.64930732323E+04  0.65000000000E+04  0.30000000000E+03 0. -1.
        -52   -1    0    0    0    0 -0.00000000000E+00 -0.00000000000E+00 -0.64930732323E+04  0.65000000000E+04  0.30000000000E+03 0.  1.
     100001    1    1    2    0    0 -0.11117575538E+04  0.29021999352E+04 -0.57068888571E+04  0.65000000000E+04  0.15050000000E+03 0.  1.
     100001    1    1    2    0    0  0.11117575538E+04 -0.29021999352E+04  0.57068888571E+04  0.65000000000E+04  0.15050000000E+03 0. -1.
</event>
<event>
 4    1  0.5640637E-004  0.6500000E+04  0.7818608E-02  0.7223770E-01
         52   -1    0    0    0    0  0.00000000000E+00  0.00000000000E+00  0.64930732323E+04  0.65000000000E+04  0.30000000000E+03 0.  1.
        -52   -1    0    0    0    0 -0.00000000000E+00 -0.00000000000E+00 -0.64930732323E+04  0.65000000000E+04  0.30000000000E+03 0. -1.
     100001    1    1    2    0    0  0.25884940221E+03 -0.63069173242E+03  0.64623969760E+04  0.65000000000E+04  0.15050000000E+03 0.  1.
     100001    1    1    2    0    0 -0.25884940221E+03  0.63069173242E+03 -0.64623969760E+04  0.65000000000E+04  0.15050000000E+03 0. -1.
</event>
<event>
 4    1  0.5640637E-004  0.6500000E+04  0.7818608E-02  0.7223770E-01
         52   -1    0    0    0    0  0.00000000000E+00  0.00000000000E+00  0.64930732323E+04  0.65000000000E+04  0.30000000000E+03 0. -1.
        -52   -1    0    0    0    0 -0.00000000000E+00 -0.00000000000E+00 -0.64930732323E+04  0.65000000000E+04  0.30000000000E+03 0.  1.
     100001    1    1    2    0    0 -0.59696488170E+02 -0.23021684393E+03 -0.64939037785E+04  0.65000000000E+04  0.15050000000E+03 0.  1.
     100001    1    1    2    0    0  0.59696488170E+02  0.23021684393E+03  0.64939037785E+04  0.65000000000E+04  0.15050000000E+03 0. -1.
</event>
<event>
 4    1  0.5640637E-004  0.6500000E+04  0.7818608E-02  0.7223770E-01
         52   -1    0    0    0    0  0.00000000000E+00  0.00000000000E+00  0.64930732323E+04  0.65000000000E+04  0.30000000000E+03 0.  1.
        -52   -1    0    0    0    0 -0.00000000000E+00 -0.00000000000E+00 -0.64930732323E+04  0.65000000000E+04  0.30000000000E+03 0.  1.
     100001    1    1    2    0    0 -0.78476726259E+02 -0.29041919013E+03  0.64912901528E+04  0.65000000000E+04  0.15050000000E+03 0.  1.
     100001    1    1    2    0    0  0.78476726259E+02  0.29041919013E+03 -0.64912901528E+04  0.65000000000E+04  0.15050000000E+03 0.  1.
</event>
<event>
 4    1  0.5640637E-004  0.6500000E+04  0.7818608E-02  0.7223770E-01
         52   -1    0    0    0    0  0.00000000000E+00  0.00000000000E+00  0.64930732323E+04  0.65000000000E+04  0.30000000000E+03 0. -1.
        -52   -1    0    0    0    0 -0.00000000000E+00 -0.00000000000E+00 -0.64930732323E+04  0.65000000000E+04  0.30000000000E+03 0.  1.
     100001    1    1    2    0    0  0.10874729512E+04 -0.12265455435E+04 -0.62881108737E+04  0.65000000000E+04  0.15050000000E+03 0.  1.
     100001    1    1    2    0    0 -0.10874729512E+04  0.12265455435E+04  0.62881108737E+04  0.65000000000E+04  0.15050000000E+03 0. -1.
</event>
<event>
 4    1  0.5640637E-004  0.6500000E+04  0.7818608E-02  0.7223770E-01
         52   -1    0    0    0    0  0.00000000000E+00  0.00000000000E+00  0.64930732323E+04  0.65000000000E+04  0.30000000000E+03 0. -1.
        -52   -1    0    0    0    0 -0.00000000000E+00 -0.00000000000E+00 -0.64930732323E+04  0.65000000000E+04  0.30000000000E+03 0.  1.
     100001    1    1    2    0    0  0.12462662380E+04  0.42934048072E+03 -0.63631624972E+04  0.65000000000E+04  0.15050000000E+03 0.  1.
     100001    1    1    2    0    0 -0.12462662380E+04 -0.42934048072E+03  0.63631624972E+04  0.65000000000E+04  0.15050000000E+03 0. -1.
</event>
<event>
 4    1  0.5640637E-004  0.6500000E+04  0.7818608E-02  0.7223770E-01
         52   -1    0    0    0    0  0.00000000000E+00  0.00000000000E+00  0.64930732323E+04  0.65000000000E+04  0.30000000000E+03 0.  1.
        -52   -1    0    0    0    0 -0.00000000000E+00 -0.00000000000E+00 -0.64930732323E+04  0.65000000000E+04  0.30000000000E+03 0. -1.
     100001    1    1    2    0    0 -0.47760262731E+04  0.69772798647E+03 -0.43508732968E+04  0.65000000000E+04  0.15050000000E+03 0.  1.
     100001    1    1    2    0    0  0.47760262731E+04 -0.69772798647E+03  0.43508732968E+04  0.65000000000E+04  0.15050000000E+03 0. -1.
</event>
<event>
 4    1  0.5640637E-004  0.6500000E+04  0.7818608E-02  0.7223770E-01
         52   -1    0    0    0    0  0.00000000000E+00  0.00000000000E+00  0.64930732323E+04  0.65000000000E+04  0.30000000000E+03 0.  1.
        -52   -1    0    0    0    0 -0.00000000000E+00 -0.00000000000E+00 -0.64930732323E+04  0.65000000000E+04  0.30000000000E+03 0. -1.
     100001    1    1    2    0    0 -0.36812801883E+03  0.10448022821E+03 -0.64869804527E+04  0.65000000000E+04  0.15050000000E+03 0. -1.
     100001    1    1    2    0    0  0.36812801883E+03 -0.10448022821E+03  0.64869804527E+04  0.65000000000E+04  0.15050000000E+03 0.  1.
</event>
<event>
 4    1  0.5640637E-004  0.6500000E+04  0.7818608E-02  0.7223770E-01
         52   -1    0    0    0    0  0.00000000000E+00  0.00000000000E+00  0.64930732323E+04  0.65000000000E+04  0.30000000000E+03 0.  1.
        -52   -1    0    0    0    0 -0.00000000000E+00 -0.00000000000E+00 -0.64930732323E+04  0.65000000000E+04  0.30000000000E+03 0. -1.
     100001    1    1    2    0    0  0.76859671931E+03 -0.26745658451E+03  0.64470982472E+04  0.65000000000E+04  0.15050000000E+03 0.  1.
     100001    1    1    2    0    0 -0.76859671931E+03  0.26745658451E+03 -0.64470982472E+04  0.65000000000E+04  0.15050000000E+03 0. -1.
</event>
<event>
 4    1  0.5640637E-004  0.6500000E+04  0.7818608E-02  0.7223770E-01
         52   -1    0    0    0    0  0.00000000000E+00  0.00000000000E+00  0.64930732323E+04  0.65000000000E+04  0.30000000000E+03 0. -1.
        -52   -1    0    0    0    0 -0.00000000000E+00 -0.00000000000E+00 -0.64930732323E+04  0.65000000000E+04  0.30000000000E+03 0. -1.
     100001    1    1    2    0    0  0.30082179165E+03  0.36818536204E+03  0.64808406506E+04  0.65000000000E+04  0.15050000000E+03 0. -1.
     100001    1    1    2    0    0 -0.30082179165E+03 -0.36818536204E+03 -0.64808406506E+04  0.65000000000E+04  0.15050000000E+03 0. -1.
</event>
<event>
 4    1  0.5640637E-004  0.6500000E+04  0.7818608E-02  0.7223770E-01
         52   -1    0    0    0    0  0.00000000000E+00  0.00000000000E+00  0.64930732323E+04  0.65000000000E+04  0.30000000000E+03 0.  1.
        -52   -1    0    0    0    0 -0.00000000000E+00 -0.00000000000E+00 -0.64930732323E+04  0.65000000000E+04  0.30000000000E+03 0. -1.
     100001    1    1    2    0    0  0.14267356361E+04  0.51405436793E+02 -0.63394899366E+04  0.65000000000E+04  0.15050000000E+03 0. -1.
     100001    1    1    2    0    0 -0.14267356361E+04 -0.51405436793E+02  0.63394899366E+04  0.65000000000E+04  0.15050000000E+03 0.  1.
</event>
<event>
 4    1  0.5640637E-004  0.6500000E+04  0.7818608E-02  0.7223770E-01
         52   -1    0    0    0    0  0.00000000000E+00  0.00000000000E+00  0.64930732323E+04  0.65000000000E+04  0.30000000000E+03 0.  1.
        -52   -1    0    0    0    0 -0.00000000000E+00 -0.00000000000E+00 -0.64930732323E+04  0.65000000000E+04  0.30000000000E+03 0. -1.
     100001    1    1    2    0    0  0.25660926098E+04 -0.27595337759E+04 -0.52940997165E+04  0.65000000000E+04  0.15050000000E+03 0. -1.
     100001    1    1    2    0    0 -0.25660926098E+04  0.27595337759E+04  0.52940997165E+04  0.65000000000E+04  0.15050000000E+03 0.  1.
</event>
<event>
 4    1  0.5640637E-004  0.6500000E+04  0.7818608E-02  0.7223770E-01
         52   -1    0    0    0    0  0.00000000000E+00  0.00000000000E+00  0.64930732323E+04  0.65000000000E+04  0.30000000000E+03 0. -1.
        -52   -1    0    0    0    0 -0.00000000000E+00 -0.00000000000E+00 -0.64930732323E+04  0.65000000000E+04  0.30000000000E+03 0.  1.
     100001    1    1    2    0    0  0.56896067020E+03  0.20872177161E+04  0.61275733950E+04  0.65000000000E+04  0.15050000000E+03 0. -1.
     100001    1    1    2    0    0 -0.56896067020E+03 -0.20872177161E+04 -0.61275733950E+04  0.65000000000E+04  0.15050000000E+03 0.  1.
</event>
<event>
 4    1  0.5640637E-004  0.6500000E+04  0.7818608E-02  0.7223770E-01
         52   -1    0    0    0    0  0.00000000000E+00  0.00000000000E+00  0.64930732323E+04  0.65000000000E+04  0.30000000000E+03 0.  1.
        -52   -1    0    0    0    0 -0.00000000000E+00 -0.00000000000E+00 -0.64930732323E+04  0.65000000000E+04  0.30000000000E+03 0.  1.
     100001    1    1    2    0    0 -0.37961671906E+03  0.34940458160E+02  0.64870655971E+04  0.65000000000E+04  0.15050000000E+03 0.  1.
     100001    1    1    2    0    0  0.37961671906E+03 -0.34940458160E+02 -0.64870655971E+04  0.65000000000E+04  0.15050000000E+03 0.  1.
</event>
<event>
 4    1  0.5640637E-004  0.6500000E+04  0.7818608E-02  0.7223770E-01
         52   -1    0    0    0    0  0.00000000000E+00  0.00000000000E+00  0.64930732323E+04  0.65000000000E+04  0.30000000000E+03 0.  1.
        -52   -1    0    0    0    0 -0.00000000000E+00 -0.00000000000E+00 -0.64930732323E+04  0.65000000000E+04  0.30000000000E+03 0. -1.
     100001    1    1    2    0    0 -0.83046878849E+03 -0.44313128164E+03  0.64297205234E+04  0.65000000000E+04  0.15050000000E+03 0.  1.
     100001    1    1    2    0    0  0.83046878849E+03  0.44313128164E+03 -0.64297205234E+04  0.65000000000E+04  0.15050000000E+03 0. -1.
</event>
<event>
 4    1  0.5640637E-004  0.6500000E+04  0.7818608E-02  0.7223770E-01
         52   -1    0    0    0    0  0.00000000000E+00  0.00000000000E+00  0.64930732323E+04  0.65000000000E+04  0.30000000000E+03 0. -1.
        -52   -1    0    0    0    0 -0.00000000000E+00 -0.00000000000E+00 -0.64930732323E+04  0.65000000000E+04  0.30000000000E+03 0.  1.
     100001    1    1    2    0    0 -0.22665661066E+03 -0.13387100233E+04 -0.63548274567E+04  0.65000000000E+04  0.15050000000E+03 0.  1.
     100001    1    1    2    0    0  0.22665661066E+03  0.13387100233E+04  0.63548274567E+04  0.65000000000E+04  0.15050000000E+03 0. -1.
</event>
<event>
 4    1  0.5640637E-004  0.6500000E+04  0.7818608E-02  0.7223770E-01
         52   -1    0    0    0    0  0.00000000000E+00  0.00000000000E+00  0.64930732323E+04  0.65000000000E+04  0.30000000000E+03 0. -1.
        -52   -1    0    0    0    0 -0.00000000000E+00 -0.00000000000E+00 -0.64930732323E+04  0.65000000000E+04  0.30000000000E+03 0.  1.
     100001    1    1    2    0    0 -0.93724151521E+03  0.58564477286E+03  0.64035887042E+04  0.65000000000E+04  0.15050000000E+03 0. -1.
     100001    1    1    2    0    0  0.93724151521E+03 -0.58564477286E+03 -0.64035887042E+04  0.65000000000E+04  0.15050000000E+03 0.  1.
</event>
<event>
 4    1  0.5640637E-004  0.6500000E+04  0.7818608E-02  0.7223770E-01
         52   -1    0    0    0    0  0.00000000000E+00  0.00000000000E+00  0.64930732323E+04  0.65000000000E+04  0.30000000000E+03 0.  1.
        -52   -1    0    0    0    0 -0.00000000000E+00 -0.00000000000E+00 -0.64930732323E+04  0.65000000000E+04  0.30000000000E+03 0.  1.
     100001    1    1    2    0    0 -0.71076873019E+02 -0.15760633251E+03 -0.64959570559E+04  0.65000000000E+04  0.15050000000E+03 0.  1.
     100001    1    1    2    0    0  0.71076873019E+02  0.15760633251E+03  0.64959570559E+04  0.65000000000E+04  0.15050000000E+03 0.  1.
</event>
<event>
 4    1  0.5640637E-004  0.6500000E+04  0.7818608E-02  0.7223770E-01
         52   -1    0    0    0    0  0.00000000000E+00  0.00000000000E+00  0.64930732323E+04  0.65000000000E+04  0.30000000000E+03 0. -1.
        -52   -1    0    0    0    0 -0.00000000000E+00 -0.00000000000E+00 -0.64930732323E+04  0.65000000000E+04  0.30000000000E+03 0.  1.
     100001    1    1    2    0    0 -0.91481022569E+02  0.77474563216E+03  0.64512595807E+04  0.65000000000E+04  0.15050000000E+03 0. -1.
     100001    1    1    2    0    0  0.91481022569E+02 -0.77474563216E+03 -0.64512595807E+04  0.65000000000E+04  0.15050000000E+03 0.  1.
</event>
<event>
 4    1  0.5640637E-004  0.6500000E+04  0.7818608E-02  0.7223770E-01
         52   -1    0    0    0    0  0.00000000000E+00  0.00000000000E+00  0.64930732323E+04  0.65000000000E+04  0.30000000000E+03 0. -1.
        -52   -1    0    0    0    0 -0.00000000000E+00 -0.00000000000E+00 -0.64930732323E+04  0.65000000000E+04  0.30000000000E+03 0. -1.
     100001    1    1    2    0    0 -0.66379865433E+02  0.25223206327E+03  0.64930210572E+04  0.65000000000E+04  0.15050000000E+03 0. -1.
     100001    1    1    2    0    0  0.66379865433E+02 -0.25223206327E+03 -0.64930210572E+04  0.65000000000E+04  0.15050000000E+03 0. -1.
</event>
<event>
 4    1  0.5640637E-004  0.6500000E+04  0.7818608E-02  0.7223770E-01
         52   -1    0    0    0    0  0.00000000000E+00  0.00000000000E+00  0.64930732323E+04  0.65000000000E+04  0.30000000000E+03 0.  1.
        -52   -1    0    0    0    0 -0.00000000000E+00 -0.00000000000E+00 -0.64930732323E+04  0.65000000000E+04  0.30000000000E+03 0. -1.
     100001    1    1    2    0    0  0.52832225121E+03  0.84257534829E+03 -0.64217047683E+04  0.65000000000E+04  0.15050000000E+03 0. -1.
     100001    1    1    2    0    0 -0.52832225121E+03 -0.84257534829E+03  0.64217047683E+04  0.65000000000E+04  0.15050000000E+03 0.  1.
</event>
<event>
 4    1  0.6123033E-004  0.6500000E+04  0.7818608E-02  0.7223770E-01
         52   -1    0    0    0    0  0.00000000000E+00  0.00000000000E+00  0.64930732323E+04  0.65000000000E+04  0.30000000000E+03 0. -1.
        -52   -1    0    0    0    0 -0.00000000000E+00 -0.00000000000E+00 -0.64930732323E+04  0.65000000000E+04  0.30000000000E+03 0.  1.
     100001    1    1    2    0    0 -0.73389010783E+02  0.21368177947E+03 -0.64943285950E+04  0.65000000000E+04  0.15050000000E+03 0.  1.
     100001    1    1    2    0    0  0.73389010783E+02 -0.21368177947E+03  0.64943285950E+04  0.65000000000E+04  0.15050000000E+03 0. -1.
</event>
<event>
 4    1  0.5640637E-004  0.6500000E+04  0.7818608E-02  0.7223770E-01
         52   -1    0    0    0    0  0.00000000000E+00  0.00000000000E+00  0.64930732323E+04  0.65000000000E+04  0.30000000000E+03 0. -1.
        -52   -1    0    0    0    0 -0.00000000000E+00 -0.00000000000E+00 -0.64930732323E+04  0.65000000000E+04  0.30000000000E+03 0.  1.
     100001    1    1    2    0    0  0.23361198048E+04  0.16760767476E+04 -0.58275776051E+04  0.65000000000E+04  0.15050000000E+03 0.  1.
     100001    1    1    2    0    0 -0.23361198048E+04 -0.16760767476E+04  0.58275776051E+04  0.65000000000E+04  0.15050000000E+03 0. -1.
</event>
<event>
 4    1  0.5640637E-004  0.6500000E+04  0.7818608E-02  0.7223770E-01
         52   -1    0    0    0    0  0.00000000000E+00  0.00000000000E+00  0.64930732323E+04  0.65000000000E+04  0.30000000000E+03 0.  1.
        -52   -1    0    0    0    0 -0.00000000000E+00 -0.00000000000E+00 -0.64930732323E+04  0.65000000000E+04  0.30000000000E+03 0. -1.
     100001    1    1    2    0    0  0.19699597694E+03 -0.13143397185E+04 -0.63609003639E+04  0.65000000000E+04  0.15050000000E+03 0. -1.
     100001    1    1    2    0    0 -0.19699597694E+03  0.13143397185E+04  0.63609003639E+04  0.65000000000E+04  0.15050000000E+03 0.  1.
</event>
<event>
 4    1  0.5640637E-004  0.6500000E+04  0.7818608E-02  0.7223770E-01
         52   -1    0    0    0    0  0.00000000000E+00  0.00000000000E+00  0.64930732323E+04  0.65000000000E+04  0.30000000000E+03 0. -1.
        -52   -1    0    0    0    0 -0.00000000000E+00 -0.00000000000E+00 -0.64930732323E+04  0.65000000000E+04  0.30000000000E+03 0. -1.
     100001    1    1    2    0    0  0.36077573845E+02  0.45079050055E+02 -0.64980009263E+04  0.65000000000E+04  0.15050000000E+03 0. -1.
     100001    1    1    2    0    0 -0.36077573845E+02 -0.45079050055E+02  0.64980009263E+04  0.65000000000E+04  0.15050000000E+03 0. -1.
</event>
<event>
 4    1  0.5640637E-004  0.6500000E+04  0.7818608E-02  0.7223770E-01
         52   -1    0    0    0    0  0.00000000000E+00  0.00000000000E+00  0.64930732323E+04  0.65000000000E+04  0.30000000000E+03 0. -1.
        -52   -1    0    0    0    0 -0.00000000000E+00 -0.00000000000E+00 -0.64930732323E+04  0.65000000000E+04  0.30000000000E+03 0.  1.
     100001    1    1    2    0    0 -0.19914265365E+04  0.41341327112E+03 -0.61717630842E+04  0.65000000000E+04  0.15050000000E+03 0.  1.
     100001    1    1    2    0    0  0.19914265365E+04 -0.41341327112E+03  0.61717630842E+04  0.65000000000E+04  0.15050000000E+03 0. -1.
</event>
<event>
 4    1  0.5640637E-004  0.6500000E+04  0.7818608E-02  0.7223770E-01
         52   -1    0    0    0    0  0.00000000000E+00  0.00000000000E+00  0.64930732323E+04  0.65000000000E+04  0.30000000000E+03 0.  1.
        -52   -1    0    0    0    0 -0.00000000000E+00 -0.00000000000E+00 -0.64930732323E+04  0.65000000000E+04  0.30000000000E+03 0. -1.
     100001    1    1    2    0    0 -0.14117374953E+04  0.12007614895E+04 -0.62283640581E+04  0.65000000000E+04  0.15050000000E+03 0. -1.
     100001    1    1    2    0    0  0.14117374953E+04 -0.12007614895E+04  0.62283640581E+04  0.65000000000E+04  0.15050000000E+03 0.  1.
</event>
<event>
 4    1  0.5640637E-004  0.6500000E+04  0.7818608E-02  0.7223770E-01
         52   -1    0    0    0    0  0.00000000000E+00  0.00000000000E+00  0.64930732323E+04  0.65000000000E+04  0.30000000000E+03 0. -1.
        -52   -1    0    0    0    0 -0.00000000000E+00 -0.00000000000E+00 -0.64930732323E+04  0.65000000000E+04  0.30000000000E+03 0.  1.
     100001    1    1    2    0    0 -0.16728516230E+03 -0.49004994151E+03  0.64775934173E+04  0.65000000000E+04  0.15050000000E+03 0. -1.
     100001    1    1    2    0    0  0.16728516230E+03  0.49004994151E+03 -0.64775934173E+04  0.65000000000E+04  0.15050000000E+03 0.  1.
</event>
<event>
 4    1  0.5640637E-004  0.6500000E+04  0.7818608E-02  0.7223770E-01
         52   -1    0    0    0    0  0.00000000000E+00  0.00000000000E+00  0.64930732323E+04  0.65000000000E+04  0.30000000000E+03 0. -1.
        -52   -1    0    0    0    0 -0.00000000000E+00 -0.00000000000E+00 -0.64930732323E+04  0.65000000000E+04  0.30000000000E+03 0.  1.
     100001    1    1    2    0    0  0.41313699674E+03 -0.67890453990E+03 -0.64494772034E+04  0.65000000000E+04  0.15050000000E+03 0.  1.
     100001    1    1    2    0    0 -0.41313699674E+03  0.67890453990E+03  0.64494772034E+04  0.65000000000E+04  0.15050000000E+03 0. -1.
</event>
<event>
 4    1  0.5640637E-004  0.6500000E+04  0.7818608E-02  0.7223770E-01
         52   -1    0    0    0    0  0.00000000000E+00  0.00000000000E+00  0.64930732323E+04  0.65000000000E+04  0.30000000000E+03 0.  1.
        -52   -1    0    0    0    0 -0.00000000000E+00 -0.00000000000E+00 -0.64930732323E+04  0.65000000000E+04  0.30000000000E+03 0. -1.
     100001    1    1    2    0    0  0.80738663506E+01  0.30126602107E+03 -0.64912651577E+04  0.65000000000E+04  0.15050000000E+03 0. -1.
     100001    1    1    2    0    0 -0.80738663506E+01 -0.30126602107E+03  0.64912651577E+04  0.65000000000E+04  0.15050000000E+03 0.  1.
</event>
<event>
 4    1  0.5640637E-004  0.6500000E+04  0.7818608E-02  0.7223770E-01
         52   -1    0    0    0    0  0.00000000000E+00  0.00000000000E+00  0.64930732323E+04  0.65000000000E+04  0.30000000000E+03 0.  1.
        -52   -1    0    0    0    0 -0.00000000000E+00 -0.00000000000E+00 -0.64930732323E+04  0.65000000000E+04  0.30000000000E+03 0. -1.
     100001    1    1    2    0    0  0.46430743307E+03 -0.52639684989E+03 -0.64602379766E+04  0.65000000000E+04  0.15050000000E+03 0. -1.
     100001    1    1    2    0    0 -0.46430743307E+03  0.52639684989E+03  0.64602379766E+04  0.65000000000E+04  0.15050000000E+03 0.  1.
</event>
<event>
 4    1  0.5640637E-004  0.6500000E+04  0.7818608E-02  0.7223770E-01
         52   -1    0    0    0    0  0.00000000000E+00  0.00000000000E+00  0.64930732323E+04  0.65000000000E+04  0.30000000000E+03 0.  1.
        -52   -1    0    0    0    0 -0.00000000000E+00 -0.00000000000E+00 -0.64930732323E+04  0.65000000000E+04  0.30000000000E+03 0. -1.
     100001    1    1    2    0    0 -0.20523320083E+04  0.41877808479E+04 -0.45252375239E+04  0.65000000000E+04  0.15050000000E+03 0. -1.
     100001    1    1    2    0    0  0.20523320083E+04 -0.41877808479E+04  0.45252375239E+04  0.65000000000E+04  0.15050000000E+03 0.  1.
</event>
<event>
 4    1  0.5640637E-004  0.6500000E+04  0.7818608E-02  0.7223770E-01
         52   -1    0    0    0    0  0.00000000000E+00  0.00000000000E+00  0.64930732323E+04  0.65000000000E+04  0.30000000000E+03 0. -1.
        -52   -1    0    0    0    0 -0.00000000000E+00 -0.00000000000E+00 -0.64930732323E+04  0.65000000000E+04  0.30000000000E+03 0.  1.
     100001    1    1    2    0    0 -0.80122029461E+03 -0.18527525903E+01 -0.64486736897E+04  0.65000000000E+04  0.15050000000E+03 0.  1.
     100001    1    1    2    0    0  0.80122029461E+03  0.18527525903E+01  0.64486736897E+04  0.65000000000E+04  0.15050000000E+03 0. -1.
</event>
<event>
 4    1  0.5640637E-004  0.6500000E+04  0.7818608E-02  0.7223770E-01
         52   -1    0    0    0    0  0.00000000000E+00  0.00000000000E+00  0.64930732323E+04  0.65000000000E+04  0.30000000000E+03 0.  1.
        -52   -1    0    0    0    0 -0.00000000000E+00 -0.00000000000E+00 -0.64930732323E+04  0.65000000000E+04  0.30000000000E+03 0. -1.
     100001    1    1    2    0    0  0.13795322726E+04  0.35686212567E+03 -0.63401017249E+04  0.65000000000E+04  0.15050000000E+03 0. -1.
     100001    1    1    2    0    0 -0.13795322726E+04 -0.35686212567E+03  0.63401017249E+04  0.65000000000E+04  0.15050000000E+03 0.  1.
</event>
<event>
 4    1  0.5640637E-004  0.6500000E+04  0.7818608E-02  0.7223770E-01
         52   -1    0    0    0    0  0.00000000000E+00  0.00000000000E+00  0.64930732323E+04  0.65000000000E+04  0.30000000000E+03 0.  1.
        -52   -1    0    0    0    0 -0.00000000000E+00 -0.00000000000E+00 -0.64930732323E+04  0.65000000000E+04  0.30000000000E+03 0. -1.
     100001    1    1    2    0    0  0.62546825289E+04  0.96488513843E+03  0.14748874132E+04  0.65000000000E+04  0.15050000000E+03 0.  1.
     100001    1    1    2    0    0 -0.62546825289E+04 -0.96488513843E+03 -0.14748874132E+04  0.65000000000E+04  0.15050000000E+03 0. -1.
</event>
<event>
 4    1  0.5640637E-004  0.6500000E+04  0.7818608E-02  0.7223770E-01
         52   -1    0    0    0    0  0.00000000000E+00  0.00000000000E+00  0.64930732323E+04  0.65000000000E+04  0.30000000000E+03 0.  1.
        -52   -1    0    0    0    0 -0.00000000000E+00 -0.00000000000E+00 -0.64930732323E+04  0.65000000000E+04  0.30000000000E+03 0.  1.
     100001    1    1    2    0    0 -0.22065233667E+03  0.18382040040E+03  0.64919082215E+04  0.65000000000E+04  0.15050000000E+03 0.  1.
     100001    1    1    2    0    0  0.22065233667E+03 -0.18382040040E+03 -0.64919082215E+04  0.65000000000E+04  0.15050000000E+03 0.  1.
</event>
<event>
 4    1  0.5640637E-004  0.6500000E+04  0.7818608E-02  0.7223770E-01
         52   -1    0    0    0    0  0.00000000000E+00  0.00000000000E+00  0.64930732323E+04  0.65000000000E+04  0.30000000000E+03 0.  1.
        -52   -1    0    0    0    0 -0.00000000000E+00 -0.00000000000E+00 -0.64930732323E+04  0.65000000000E+04  0.30000000000E+03 0. -1.
     100001    1    1    2    0    0 -0.44080081557E+03 -0.38312981695E+04 -0.52301241598E+04  0.65000000000E+04  0.15050000000E+03 0. -1.
     100001    1    1    2    0    0  0.44080081557E+03  0.38312981695E+04  0.52301241598E+04  0.65000000000E+04  0.15050000000E+03 0.  1.
</event>
<event>
 4    1  0.5640637E-004  0.6500000E+04  0.7818608E-02  0.7223770E-01
         52   -1    0    0    0    0  0.00000000000E+00  0.00000000000E+00  0.64930732323E+04  0.65000000000E+04  0.30000000000E+03 0. -1.
        -52   -1    0    0    0    0 -0.00000000000E+00 -0.00000000000E+00 -0.64930732323E+04  0.65000000000E+04  0.30000000000E+03 0.  1.
     100001    1    1    2    0    0 -0.30238678023E+04 -0.22047997073E+03  0.57476048792E+04  0.65000000000E+04  0.15050000000E+03 0. -1.
     100001    1    1    2    0    0  0.30238678023E+04  0.22047997073E+03 -0.57476048792E+04  0.65000000000E+04  0.15050000000E+03 0.  1.
</event>
<event>
 4    1  0.5640637E-004  0.6500000E+04  0.7818608E-02  0.7223770E-01
         52   -1    0    0    0    0  0.00000000000E+00  0.00000000000E+00  0.64930732323E+04  0.65000000000E+04  0.30000000000E+03 0.  1.
        -52   -1    0    0    0    0 -0.00000000000E+00 -0.00000000000E+00 -0.64930732323E+04  0.65000000000E+04  0.30000000000E+03 0. -1.
     100001    1    1    2    0    0  0.25626896494E+03 -0.40303070144E+03 -0.64806822342E+04  0.65000000000E+04  0.15050000000E+03 0. -1.
     100001    1    1    2    0    0 -0.25626896494E+03  0.40303070144E+03  0.64806822342E+04  0.65000000000E+04  0.15050000000E+03 0.  1.
</event>
<event>
 4    1  0.5640637E-004  0.6500000E+04  0.7818608E-02  0.7223770E-01
         52   -1    0    0    0    0  0.00000000000E+00  0.00000000000E+00  0.64930732323E+04  0.65000000000E+04  0.30000000000E+03 0.  1.
        -52   -1    0    0    0    0 -0.00000000000E+00 -0.00000000000E+00 -0.64930732323E+04  0.65000000000E+04  0.30000000000E+03 0. -1.
     100001    1    1    2    0    0  0.56981010626E+04  0.19349061304E+04  0.24525766648E+04  0.65000000000E+04  0.15050000000E+03 0.  1.
     100001    1    1    2    0    0 -0.56981010626E+04 -0.19349061304E+04 -0.24525766648E+04  0.65000000000E+04  0.15050000000E+03 0. -1.
</event>
<event>
 4    1  0.5640637E-004  0.6500000E+04  0.7818608E-02  0.7223770E-01
         52   -1    0    0    0    0  0.00000000000E+00  0.00000000000E+00  0.64930732323E+04  0.65000000000E+04  0.30000000000E+03 0.  1.
        -52   -1    0    0    0    0 -0.00000000000E+00 -0.00000000000E+00 -0.64930732323E+04  0.65000000000E+04  0.30000000000E+03 0. -1.
     100001    1    1    2    0    0  0.29368294200E+04 -0.43633801322E+04 -0.38161887440E+04  0.65000000000E+04  0.15050000000E+03 0.  1.
     100001    1    1    2    0    0 -0.29368294200E+04  0.43633801322E+04  0.38161887440E+04  0.65000000000E+04  0.15050000000E+03 0. -1.
</event>
<event>
 4    1  0.5640637E-004  0.6500000E+04  0.7818608E-02  0.7223770E-01
         52   -1    0    0    0    0  0.00000000000E+00  0.00000000000E+00  0.64930732323E+04  0.65000000000E+04  0.30000000000E+03 0.  1.
        -52   -1    0    0    0    0 -0.00000000000E+00 -0.00000000000E+00 -0.64930732323E+04  0.65000000000E+04  0.30000000000E+03 0. -1.
     100001    1    1    2    0    0  0.53269436967E+04 -0.11671536109E+04 -0.35339458188E+04  0.65000000000E+04  0.15050000000E+03 0. -1.
     100001    1    1    2    0    0 -0.53269436967E+04  0.11671536109E+04  0.35339458188E+04  0.65000000000E+04  0.15050000000E+03 0.  1.
</event>
<event>
 4    1  0.5640637E-004  0.6500000E+04  0.7818608E-02  0.7223770E-01
         52   -1    0    0    0    0  0.00000000000E+00  0.00000000000E+00  0.64930732323E+04  0.65000000000E+04  0.30000000000E+03 0. -1.
        -52   -1    0    0    0    0 -0.00000000000E+00 -0.00000000000E+00 -0.64930732323E+04  0.65000000000E+04  0.30000000000E+03 0. -1.
     100001    1    1    2    0    0 -0.85190237997E+03  0.44696757212E+03  0.64266501441E+04  0.65000000000E+04  0.15050000000E+03 0. -1.
     100001    1    1    2    0    0  0.85190237997E+03 -0.44696757212E+03 -0.64266501441E+04  0.65000000000E+04  0.15050000000E+03 0. -1.
</event>
<event>
 4    1  0.5640637E-004  0.6500000E+04  0.7818608E-02  0.7223770E-01
         52   -1    0    0    0    0  0.00000000000E+00  0.00000000000E+00  0.64930732323E+04  0.65000000000E+04  0.30000000000E+03 0.  1.
        -52   -1    0    0    0    0 -0.00000000000E+00 -0.00000000000E+00 -0.64930732323E+04  0.65000000000E+04  0.30000000000E+03 0. -1.
     100001    1    1    2    0    0 -0.20428094822E+04 -0.11353835204E+03  0.61677701167E+04  0.65000000000E+04  0.15050000000E+03 0.  1.
     100001    1    1    2    0    0  0.20428094822E+04  0.11353835204E+03 -0.61677701167E+04  0.65000000000E+04  0.15050000000E+03 0. -1.
</event>
<event>
 4    1  0.5640637E-004  0.6500000E+04  0.7818608E-02  0.7223770E-01
         52   -1    0    0    0    0  0.00000000000E+00  0.00000000000E+00  0.64930732323E+04  0.65000000000E+04  0.30000000000E+03 0.  1.
        -52   -1    0    0    0    0 -0.00000000000E+00 -0.00000000000E+00 -0.64930732323E+04  0.65000000000E+04  0.30000000000E+03 0. -1.
     100001    1    1    2    0    0  0.16026133158E+04  0.93337893414E+03 -0.62279839495E+04  0.65000000000E+04  0.15050000000E+03 0. -1.
     100001    1    1    2    0    0 -0.16026133158E+04 -0.93337893414E+03  0.62279839495E+04  0.65000000000E+04  0.15050000000E+03 0.  1.
</event>
<event>
 4    1  0.5640637E-004  0.6500000E+04  0.7818608E-02  0.7223770E-01
         52   -1    0    0    0    0  0.00000000000E+00  0.00000000000E+00  0.64930732323E+04  0.65000000000E+04  0.30000000000E+03 0.  1.
        -52   -1    0    0    0    0 -0.00000000000E+00 -0.00000000000E+00 -0.64930732323E+04  0.65000000000E+04  0.30000000000E+03 0. -1.
     100001    1    1    2    0    0 -0.64012829040E+03  0.35868318987E+03  0.64566966702E+04  0.65000000000E+04  0.15050000000E+03 0.  1.
     100001    1    1    2    0    0  0.64012829040E+03 -0.35868318987E+03 -0.64566966702E+04  0.65000000000E+04  0.15050000000E+03 0. -1.
</event>
<event>
 4    1  0.5640637E-004  0.6500000E+04  0.7818608E-02  0.7223770E-01
         52   -1    0    0    0    0  0.00000000000E+00  0.00000000000E+00  0.64930732323E+04  0.65000000000E+04  0.30000000000E+03 0. -1.
        -52   -1    0    0    0    0 -0.00000000000E+00 -0.00000000000E+00 -0.64930732323E+04  0.65000000000E+04  0.30000000000E+03 0.  1.
     100001    1    1    2    0    0  0.83122522482E+03 -0.20652210941E+04 -0.61050205739E+04  0.65000000000E+04  0.15050000000E+03 0.  1.
     100001    1    1    2    0    0 -0.83122522482E+03  0.20652210941E+04  0.61050205739E+04  0.65000000000E+04  0.15050000000E+03 0. -1.
</event>
<event>
 4    1  0.5640637E-004  0.6500000E+04  0.7818608E-02  0.7223770E-01
         52   -1    0    0    0    0  0.00000000000E+00  0.00000000000E+00  0.64930732323E+04  0.65000000000E+04  0.30000000000E+03 0.  1.
        -52   -1    0    0    0    0 -0.00000000000E+00 -0.00000000000E+00 -0.64930732323E+04  0.65000000000E+04  0.30000000000E+03 0. -1.
     100001    1    1    2    0    0 -0.28916852032E+04 -0.15484830788E+04 -0.56096084168E+04  0.65000000000E+04  0.15050000000E+03 0. -1.
     100001    1    1    2    0    0  0.28916852032E+04  0.15484830788E+04  0.56096084168E+04  0.65000000000E+04  0.15050000000E+03 0.  1.
</event>
<event>
 4    1  0.5640637E-004  0.6500000E+04  0.7818608E-02  0.7223770E-01
         52   -1    0    0    0    0  0.00000000000E+00  0.00000000000E+00  0.64930732323E+04  0.65000000000E+04  0.30000000000E+03 0. -1.
        -52   -1    0    0    0    0 -0.00000000000E+00 -0.00000000000E+00 -0.64930732323E+04  0.65000000000E+04  0.30000000000E+03 0.  1.
     100001    1    1    2    0    0  0.24608211952E+04 -0.29117358300E+03  0.60072395274E+04  0.65000000000E+04  0.15050000000E+03 0. -1.
     100001    1    1    2    0    0 -0.24608211952E+04  0.29117358300E+03 -0.60072395274E+04  0.65000000000E+04  0.15050000000E+03 0.  1.
</event>
<event>
 4    1  0.7794934E-004  0.6500000E+04  0.7818608E-02  0.7223770E-01
         52   -1    0    0    0    0  0.00000000000E+00  0.00000000000E+00  0.64930732323E+04  0.65000000000E+04  0.30000000000E+03 0. -1.
        -52   -1    0    0    0    0 -0.00000000000E+00 -0.00000000000E+00 -0.64930732323E+04  0.65000000000E+04  0.30000000000E+03 0. -1.
     100001    1    1    2    0    0  0.67854292125E+02  0.78374866647E+02  0.64974304864E+04  0.65000000000E+04  0.15050000000E+03 0. -1.
     100001    1    1    2    0    0 -0.67854292125E+02 -0.78374866647E+02 -0.64974304864E+04  0.65000000000E+04  0.15050000000E+03 0. -1.
</event>
<event>
 4    1  0.5640637E-004  0.6500000E+04  0.7818608E-02  0.7223770E-01
         52   -1    0    0    0    0  0.00000000000E+00  0.00000000000E+00  0.64930732323E+04  0.65000000000E+04  0.30000000000E+03 0. -1.
        -52   -1    0    0    0    0 -0.00000000000E+00 -0.00000000000E+00 -0.64930732323E+04  0.65000000000E+04  0.30000000000E+03 0.  1.
     100001    1    1    2    0    0 -0.52713329297E+03  0.20304800186E+03  0.64736582973E+04  0.65000000000E+04  0.15050000000E+03 0. -1.
     100001    1    1    2    0    0  0.52713329297E+03 -0.20304800186E+03 -0.64736582973E+04  0.65000000000E+04  0.15050000000E+03 0.  1.
</event>
<event>
 4    1  0.5640637E-004  0.6500000E+04  0.7818608E-02  0.7223770E-01
         52   -1    0    0    0    0  0.00000000000E+00  0.00000000000E+00  0.64930732323E+04  0.65000000000E+04  0.30000000000E+03 0.  1.
        -52   -1    0    0    0    0 -0.00000000000E+00 -0.00000000000E+00 -0.64930732323E+04  0.65000000000E+04  0.30000000000E+03 0. -1.
     100001    1    1    2    0    0  0.82701869557E+03  0.26646844527E+03  0.64399056200E+04  0.65000000000E+04  0.15050000000E+03 0.  1.
     100001    1    1    2    0    0 -0.82701869557E+03 -0.26646844527E+03 -0.64399056200E+04  0.65000000000E+04  0.15050000000E+03 0. -1.
</event>
<event>
 4    1  0.5640637E-004  0.6500000E+04  0.7818608E-02  0.7223770E-01
         52   -1    0    0    0    0  0.00000000000E+00  0.00000000000E+00  0.64930732323E+04  0.65000000000E+04  0.30000000000E+03 0.  1.
        -52   -1    0    0    0    0 -0.00000000000E+00 -0.00000000000E+00 -0.64930732323E+04  0.65000000000E+04  0.30000000000E+03 0. -1.
     100001    1    1    2    0    0 -0.38085101808E+04  0.98995109963E+03 -0.51713244699E+04  0.65000000000E+04  0.15050000000E+03 0. -1.
     100001    1    1    2    0    0  0.38085101808E+04 -0.98995109963E+03  0.51713244699E+04  0.65000000000E+04  0.15050000000E+03 0.  1.
</event>
<event>
 4    1  0.5640637E-004  0.6500000E+04  0.7818608E-02  0.7223770E-01
         52   -1    0    0    0    0  0.00000000000E+00  0.00000000000E+00  0.64930732323E+04  0.65000000000E+04  0.30000000000E+03 0. -1.
        -52   -1    0    0    0    0 -0.00000000000E+00 -0.00000000000E+00 -0.64930732323E+04  0.65000000000E+04  0.30000000000E+03 0.  1.
     100001    1    1    2    0    0 -0.52355934151E+04 -0.15134616061E+04  0.35391164588E+04  0.65000000000E+04  0.15050000000E+03 0. -1.
     100001    1    1    2    0    0  0.52355934151E+04  0.15134616061E+04 -0.35391164588E+04  0.65000000000E+04  0.15050000000E+03 0.  1.
</event>
<event>
 4    1  0.5640637E-004  0.6500000E+04  0.7818608E-02  0.7223770E-01
         52   -1    0    0    0    0  0.00000000000E+00  0.00000000000E+00  0.64930732323E+04  0.65000000000E+04  0.30000000000E+03 0. -1.
        -52   -1    0    0    0    0 -0.00000000000E+00 -0.00000000000E+00 -0.64930732323E+04  0.65000000000E+04  0.30000000000E+03 0.  1.
     100001    1    1    2    0    0 -0.47631554987E+03  0.34434476764E+03  0.64716226658E+04  0.65000000000E+04  0.15050000000E+03 0. -1.
     100001    1    1    2    0    0  0.47631554987E+03 -0.34434476764E+03 -0.64716226658E+04  0.65000000000E+04  0.15050000000E+03 0.  1.
</event>
<event>
 4    1  0.5640637E-004  0.6500000E+04  0.7818608E-02  0.7223770E-01
         52   -1    0    0    0    0  0.00000000000E+00  0.00000000000E+00  0.64930732323E+04  0.65000000000E+04  0.30000000000E+03 0.  1.
        -52   -1    0    0    0    0 -0.00000000000E+00 -0.00000000000E+00 -0.64930732323E+04  0.65000000000E+04  0.30000000000E+03 0. -1.
     100001    1    1    2    0    0  0.56858988697E+04 -0.27415089181E+04 -0.15433835057E+04  0.65000000000E+04  0.15050000000E+03 0. -1.
     100001    1    1    2    0    0 -0.56858988697E+04  0.27415089181E+04  0.15433835057E+04  0.65000000000E+04  0.15050000000E+03 0.  1.
</event>
<event>
 4    1  0.5640637E-004  0.6500000E+04  0.7818608E-02  0.7223770E-01
         52   -1    0    0    0    0  0.00000000000E+00  0.00000000000E+00  0.64930732323E+04  0.65000000000E+04  0.30000000000E+03 0. -1.
        -52   -1    0    0    0    0 -0.00000000000E+00 -0.00000000000E+00 -0.64930732323E+04  0.65000000000E+04  0.30000000000E+03 0.  1.
     100001    1    1    2    0    0  0.29417076718E+04 -0.53831722026E+04 -0.21436330752E+04  0.65000000000E+04  0.15050000000E+03 0.  1.
     100001    1    1    2    0    0 -0.29417076718E+04  0.53831722026E+04  0.21436330752E+04  0.65000000000E+04  0.15050000000E+03 0. -1.
</event>
<event>
 4    1  0.5640637E-004  0.6500000E+04  0.7818608E-02  0.7223770E-01
         52   -1    0    0    0    0  0.00000000000E+00  0.00000000000E+00  0.64930732323E+04  0.65000000000E+04  0.30000000000E+03 0. -1.
        -52   -1    0    0    0    0 -0.00000000000E+00 -0.00000000000E+00 -0.64930732323E+04  0.65000000000E+04  0.30000000000E+03 0. -1.
     100001    1    1    2    0    0  0.44202419519E+03  0.18362724767E+03 -0.64806053263E+04  0.65000000000E+04  0.15050000000E+03 0. -1.
     100001    1    1    2    0    0 -0.44202419519E+03 -0.18362724767E+03  0.64806053263E+04  0.65000000000E+04  0.15050000000E+03 0. -1.
</event>
<event>
 4    1  0.5640637E-004  0.6500000E+04  0.7818608E-02  0.7223770E-01
         52   -1    0    0    0    0  0.00000000000E+00  0.00000000000E+00  0.64930732323E+04  0.65000000000E+04  0.30000000000E+03 0.  1.
        -52   -1    0    0    0    0 -0.00000000000E+00 -0.00000000000E+00 -0.64930732323E+04  0.65000000000E+04  0.30000000000E+03 0. -1.
     100001    1    1    2    0    0 -0.17760177036E+02  0.40805908440E+03 -0.64854083996E+04  0.65000000000E+04  0.15050000000E+03 0. -1.
     100001    1    1    2    0    0  0.17760177036E+02 -0.40805908440E+03  0.64854083996E+04  0.65000000000E+04  0.15050000000E+03 0.  1.
</event>
<event>
 4    1  0.5640637E-004  0.6500000E+04  0.7818608E-02  0.7223770E-01
         52   -1    0    0    0    0  0.00000000000E+00  0.00000000000E+00  0.64930732323E+04  0.65000000000E+04  0.30000000000E+03 0.  1.
        -52   -1    0    0    0    0 -0.00000000000E+00 -0.00000000000E+00 -0.64930732323E+04  0.65000000000E+04  0.30000000000E+03 0. -1.
     100001    1    1    2    0    0  0.31358092846E+02 -0.14057990308E+04 -0.63442962971E+04  0.65000000000E+04  0.15050000000E+03 0. -1.
     100001    1    1    2    0    0 -0.31358092846E+02  0.14057990308E+04  0.63442962971E+04  0.65000000000E+04  0.15050000000E+03 0.  1.
</event>
<event>
 4    1  0.8835792E-004  0.6500000E+04  0.7818608E-02  0.7223770E-01
         52   -1    0    0    0    0  0.00000000000E+00  0.00000000000E+00  0.64930732323E+04  0.65000000000E+04  0.30000000000E+03 0.  1.
        -52   -1    0    0    0    0 -0.00000000000E+00 -0.00000000000E+00 -0.64930732323E+04  0.65000000000E+04  0.30000000000E+03 0.  1.
     100001    1    1    2    0    0  0.38912240789E+01  0.49839539663E+01 -0.64982543632E+04  0.65000000000E+04  0.15050000000E+03 0.  1.
     100001    1    1    2    0    0 -0.38912240789E+01 -0.49839539663E+01  0.64982543632E+04  0.65000000000E+04  0.15050000000E+03 0.  1.
</event>
<event>
 4    1  0.5640637E-004  0.6500000E+04  0.7818608E-02  0.7223770E-01
         52   -1    0    0    0    0  0.00000000000E+00  0.00000000000E+00  0.64930732323E+04  0.65000000000E+04  0.30000000000E+03 0. -1.
        -52   -1    0    0    0    0 -0.00000000000E+00 -0.00000000000E+00 -0.64930732323E+04  0.65000000000E+04  0.30000000000E+03 0. -1.
     100001    1    1    2    0    0 -0.34384366690E+03  0.52381894270E+03 -0.64679776591E+04  0.65000000000E+04  0.15050000000E+03 0. -1.
     100001    1    1    2    0    0  0.34384366690E+03 -0.52381894270E+03  0.64679776591E+04  0.65000000000E+04  0.15050000000E+03 0. -1.
</event>
<event>
 4    1  0.5640637E-004  0.6500000E+04  0.7818608E-02  0.7223770E-01
         52   -1    0    0    0    0  0.00000000000E+00  0.00000000000E+00  0.64930732323E+04  0.65000000000E+04  0.30000000000E+03 0. -1.
        -52   -1    0    0    0    0 -0.00000000000E+00 -0.00000000000E+00 -0.64930732323E+04  0.65000000000E+04  0.30000000000E+03 0.  1.
     100001    1    1    2    0    0  0.13296920711E+04  0.12883962499E+04 -0.62289087206E+04  0.65000000000E+04  0.15050000000E+03 0.  1.
     100001    1    1    2    0    0 -0.13296920711E+04 -0.12883962499E+04  0.62289087206E+04  0.65000000000E+04  0.15050000000E+03 0. -1.
</event>
<event>
 4    1  0.5640637E-004  0.6500000E+04  0.7818608E-02  0.7223770E-01
         52   -1    0    0    0    0  0.00000000000E+00  0.00000000000E+00  0.64930732323E+04  0.65000000000E+04  0.30000000000E+03 0. -1.
        -52   -1    0    0    0    0 -0.00000000000E+00 -0.00000000000E+00 -0.64930732323E+04  0.65000000000E+04  0.30000000000E+03 0.  1.
     100001    1    1    2    0    0 -0.14395984782E+03  0.30442471434E+03  0.64895262466E+04  0.65000000000E+04  0.15050000000E+03 0. -1.
     100001    1    1    2    0    0  0.14395984782E+03 -0.30442471434E+03 -0.64895262466E+04  0.65000000000E+04  0.15050000000E+03 0.  1.
</event>
<event>
 4    1  0.5640637E-004  0.6500000E+04  0.7818608E-02  0.7223770E-01
         52   -1    0    0    0    0  0.00000000000E+00  0.00000000000E+00  0.64930732323E+04  0.65000000000E+04  0.30000000000E+03 0.  1.
        -52   -1    0    0    0    0 -0.00000000000E+00 -0.00000000000E+00 -0.64930732323E+04  0.65000000000E+04  0.30000000000E+03 0.  1.
     100001    1    1    2    0    0  0.48905411111E+03 -0.30437325741E+03  0.64726758568E+04  0.65000000000E+04  0.15050000000E+03 0.  1.
     100001    1    1    2    0    0 -0.48905411111E+03  0.30437325741E+03 -0.64726758568E+04  0.65000000000E+04  0.15050000000E+03 0.  1.
</event>
<event>
 4    1  0.5640637E-004  0.6500000E+04  0.7818608E-02  0.7223770E-01
         52   -1    0    0    0    0  0.00000000000E+00  0.00000000000E+00  0.64930732323E+04  0.65000000000E+04  0.30000000000E+03 0.  1.
        -52   -1    0    0    0    0 -0.00000000000E+00 -0.00000000000E+00 -0.64930732323E+04  0.65000000000E+04  0.30000000000E+03 0. -1.
     100001    1    1    2    0    0 -0.59479624498E+02  0.40235930751E+03 -0.64855160868E+04  0.65000000000E+04  0.15050000000E+03 0. -1.
     100001    1    1    2    0    0  0.59479624498E+02 -0.40235930751E+03  0.64855160868E+04  0.65000000000E+04  0.15050000000E+03 0.  1.
</event>
<event>
 4    1  0.5640637E-004  0.6500000E+04  0.7818608E-02  0.7223770E-01
         52   -1    0    0    0    0  0.00000000000E+00  0.00000000000E+00  0.64930732323E+04  0.65000000000E+04  0.30000000000E+03 0.  1.
        -52   -1    0    0    0    0 -0.00000000000E+00 -0.00000000000E+00 -0.64930732323E+04  0.65000000000E+04  0.30000000000E+03 0. -1.
     100001    1    1    2    0    0  0.26168056021E+04 -0.58233321739E+04 -0.12118088066E+04  0.65000000000E+04  0.15050000000E+03 0. -1.
     100001    1    1    2    0    0 -0.26168056021E+04  0.58233321739E+04  0.12118088066E+04  0.65000000000E+04  0.15050000000E+03 0.  1.
</event>
<event>
 4    1  0.5640637E-004  0.6500000E+04  0.7818608E-02  0.7223770E-01
         52   -1    0    0    0    0  0.00000000000E+00  0.00000000000E+00  0.64930732323E+04  0.65000000000E+04  0.30000000000E+03 0. -1.
        -52   -1    0    0    0    0 -0.00000000000E+00 -0.00000000000E+00 -0.64930732323E+04  0.65000000000E+04  0.30000000000E+03 0. -1.
     100001    1    1    2    0    0  0.57893492757E+03  0.32498835536E+02 -0.64723355850E+04  0.65000000000E+04  0.15050000000E+03 0. -1.
     100001    1    1    2    0    0 -0.57893492757E+03 -0.32498835536E+02  0.64723355850E+04  0.65000000000E+04  0.15050000000E+03 0. -1.
</event>
<event>
 4    1  0.5640637E-004  0.6500000E+04  0.7818608E-02  0.7223770E-01
         52   -1    0    0    0    0  0.00000000000E+00  0.00000000000E+00  0.64930732323E+04  0.65000000000E+04  0.30000000000E+03 0.  1.
        -52   -1    0    0    0    0 -0.00000000000E+00 -0.00000000000E+00 -0.64930732323E+04  0.65000000000E+04  0.30000000000E+03 0. -1.
     100001    1    1    2    0    0  0.43988209165E+04  0.23270567847E+04 -0.41788193327E+04  0.65000000000E+04  0.15050000000E+03 0.  1.
     100001    1    1    2    0    0 -0.43988209165E+04 -0.23270567847E+04  0.41788193327E+04  0.65000000000E+04  0.15050000000E+03 0. -1.
</event>
<event>
 4    1  0.5640637E-004  0.6500000E+04  0.7818608E-02  0.7223770E-01
         52   -1    0    0    0    0  0.00000000000E+00  0.00000000000E+00  0.64930732323E+04  0.65000000000E+04  0.30000000000E+03 0. -1.
        -52   -1    0    0    0    0 -0.00000000000E+00 -0.00000000000E+00 -0.64930732323E+04  0.65000000000E+04  0.30000000000E+03 0.  1.
     100001    1    1    2    0    0 -0.16934243979E+04 -0.11237578421E+04 -0.61722631077E+04  0.65000000000E+04  0.15050000000E+03 0.  1.
     100001    1    1    2    0    0  0.16934243979E+04  0.11237578421E+04  0.61722631077E+04  0.65000000000E+04  0.15050000000E+03 0. -1.
</event>
<event>
 4    1  0.5640637E-004  0.6500000E+04  0.7818608E-02  0.7223770E-01
         52   -1    0    0    0    0  0.00000000000E+00  0.00000000000E+00  0.64930732323E+04  0.65000000000E+04  0.30000000000E+03 0. -1.
        -52   -1    0    0    0    0 -0.00000000000E+00 -0.00000000000E+00 -0.64930732323E+04  0.65000000000E+04  0.30000000000E+03 0.  1.
     100001    1    1    2    0    0  0.12592833519E+04 -0.92633686568E+03  0.63074127185E+04  0.65000000000E+04  0.15050000000E+03 0. -1.
     100001    1    1    2    0    0 -0.12592833519E+04  0.92633686568E+03 -0.63074127185E+04  0.65000000000E+04  0.15050000000E+03 0.  1.
</event>
<event>
 4    1  0.5640637E-004  0.6500000E+04  0.7818608E-02  0.7223770E-01
         52   -1    0    0    0    0  0.00000000000E+00  0.00000000000E+00  0.64930732323E+04  0.65000000000E+04  0.30000000000E+03 0. -1.
        -52   -1    0    0    0    0 -0.00000000000E+00 -0.00000000000E+00 -0.64930732323E+04  0.65000000000E+04  0.30000000000E+03 0.  1.
     100001    1    1    2    0    0 -0.85055479209E+03  0.17605623464E+04 -0.61971224387E+04  0.65000000000E+04  0.15050000000E+03 0.  1.
     100001    1    1    2    0    0  0.85055479209E+03 -0.17605623464E+04  0.61971224387E+04  0.65000000000E+04  0.15050000000E+03 0. -1.
</event>
<event>
 4    1  0.5640637E-004  0.6500000E+04  0.7818608E-02  0.7223770E-01
         52   -1    0    0    0    0  0.00000000000E+00  0.00000000000E+00  0.64930732323E+04  0.65000000000E+04  0.30000000000E+03 0.  1.
        -52   -1    0    0    0    0 -0.00000000000E+00 -0.00000000000E+00 -0.64930732323E+04  0.65000000000E+04  0.30000000000E+03 0. -1.
     100001    1    1    2    0    0  0.27099675927E+03 -0.24956321278E+03 -0.64878061553E+04  0.65000000000E+04  0.15050000000E+03 0. -1.
     100001    1    1    2    0    0 -0.27099675927E+03  0.24956321278E+03  0.64878061553E+04  0.65000000000E+04  0.15050000000E+03 0.  1.
</event>
<event>
 4    1  0.5640637E-004  0.6500000E+04  0.7818608E-02  0.7223770E-01
         52   -1    0    0    0    0  0.00000000000E+00  0.00000000000E+00  0.64930732323E+04  0.65000000000E+04  0.30000000000E+03 0. -1.
        -52   -1    0    0    0    0 -0.00000000000E+00 -0.00000000000E+00 -0.64930732323E+04  0.65000000000E+04  0.30000000000E+03 0.  1.
     100001    1    1    2    0    0 -0.21344227347E+04  0.19274023740E+04 -0.58272385766E+04  0.65000000000E+04  0.15050000000E+03 0.  1.
     100001    1    1    2    0    0  0.21344227347E+04 -0.19274023740E+04  0.58272385766E+04  0.65000000000E+04  0.15050000000E+03 0. -1.
</event>
<event>
 4    1  0.5640637E-004  0.6500000E+04  0.7818608E-02  0.7223770E-01
         52   -1    0    0    0    0  0.00000000000E+00  0.00000000000E+00  0.64930732323E+04  0.65000000000E+04  0.30000000000E+03 0.  1.
        -52   -1    0    0    0    0 -0.00000000000E+00 -0.00000000000E+00 -0.64930732323E+04  0.65000000000E+04  0.30000000000E+03 0. -1.
     100001    1    1    2    0    0  0.14357010213E+04 -0.69871296172E+03  0.62990406035E+04  0.65000000000E+04  0.15050000000E+03 0.  1.
     100001    1    1    2    0    0 -0.14357010213E+04  0.69871296172E+03 -0.62990406035E+04  0.65000000000E+04  0.15050000000E+03 0. -1.
</event>
<event>
 4    1  0.5640637E-004  0.6500000E+04  0.7818608E-02  0.7223770E-01
         52   -1    0    0    0    0  0.00000000000E+00  0.00000000000E+00  0.64930732323E+04  0.65000000000E+04  0.30000000000E+03 0.  1.
        -52   -1    0    0    0    0 -0.00000000000E+00 -0.00000000000E+00 -0.64930732323E+04  0.65000000000E+04  0.30000000000E+03 0.  1.
     100001    1    1    2    0    0  0.12834347021E+02  0.20206548606E+03  0.64951023525E+04  0.65000000000E+04  0.15050000000E+03 0.  1.
     100001    1    1    2    0    0 -0.12834347021E+02 -0.20206548606E+03 -0.64951023525E+04  0.65000000000E+04  0.15050000000E+03 0.  1.
</event>
<event>
 4    1  0.5640637E-004  0.6500000E+04  0.7818608E-02  0.7223770E-01
         52   -1    0    0    0    0  0.00000000000E+00  0.00000000000E+00  0.64930732323E+04  0.65000000000E+04  0.30000000000E+03 0.  1.
        -52   -1    0    0    0    0 -0.00000000000E+00 -0.00000000000E+00 -0.64930732323E+04  0.65000000000E+04  0.30000000000E+03 0. -1.
     100001    1    1    2    0    0 -0.33804286751E+03  0.34638099774E+03 -0.64802080965E+04  0.65000000000E+04  0.15050000000E+03 0. -1.
     100001    1    1    2    0    0  0.33804286751E+03 -0.34638099774E+03  0.64802080965E+04  0.65000000000E+04  0.15050000000E+03 0.  1.
</event>
<event>
 4    1  0.5640637E-004  0.6500000E+04  0.7818608E-02  0.7223770E-01
         52   -1    0    0    0    0  0.00000000000E+00  0.00000000000E+00  0.64930732323E+04  0.65000000000E+04  0.30000000000E+03 0. -1.
        -52   -1    0    0    0    0 -0.00000000000E+00 -0.00000000000E+00 -0.64930732323E+04  0.65000000000E+04  0.30000000000E+03 0.  1.
     100001    1    1    2    0    0  0.24000272678E+04 -0.14235252412E+04 -0.58686280127E+04  0.65000000000E+04  0.15050000000E+03 0.  1.
     100001    1    1    2    0    0 -0.24000272678E+04  0.14235252412E+04  0.58686280127E+04  0.65000000000E+04  0.15050000000E+03 0. -1.
</event>
<event>
 4    1  0.5640637E-004  0.6500000E+04  0.7818608E-02  0.7223770E-01
         52   -1    0    0    0    0  0.00000000000E+00  0.00000000000E+00  0.64930732323E+04  0.65000000000E+04  0.30000000000E+03 0.  1.
        -52   -1    0    0    0    0 -0.00000000000E+00 -0.00000000000E+00 -0.64930732323E+04  0.65000000000E+04  0.30000000000E+03 0. -1.
     100001    1    1    2    0    0  0.59668455459E+03  0.24302970266E+04  0.59970804276E+04  0.65000000000E+04  0.15050000000E+03 0.  1.
     100001    1    1    2    0    0 -0.59668455459E+03 -0.24302970266E+04 -0.59970804276E+04  0.65000000000E+04  0.15050000000E+03 0. -1.
</event>
<event>
 4    1  0.5640637E-004  0.6500000E+04  0.7818608E-02  0.7223770E-01
         52   -1    0    0    0    0  0.00000000000E+00  0.00000000000E+00  0.64930732323E+04  0.65000000000E+04  0.30000000000E+03 0. -1.
        -52   -1    0    0    0    0 -0.00000000000E+00 -0.00000000000E+00 -0.64930732323E+04  0.65000000000E+04  0.30000000000E+03 0. -1.
     100001    1    1    2    0    0 -0.24913869134E+03 -0.37101637768E+02  0.64933737865E+04  0.65000000000E+04  0.15050000000E+03 0. -1.
     100001    1    1    2    0    0  0.24913869134E+03  0.37101637768E+02 -0.64933737865E+04  0.65000000000E+04  0.15050000000E+03 0. -1.
</event>
<event>
 4    1  0.5640637E-004  0.6500000E+04  0.7818608E-02  0.7223770E-01
         52   -1    0    0    0    0  0.00000000000E+00  0.00000000000E+00  0.64930732323E+04  0.65000000000E+04  0.30000000000E+03 0.  1.
        -52   -1    0    0    0    0 -0.00000000000E+00 -0.00000000000E+00 -0.64930732323E+04  0.65000000000E+04  0.30000000000E+03 0. -1.
     100001    1    1    2    0    0  0.42867689047E+03  0.13567226404E+04 -0.63405748596E+04  0.65000000000E+04  0.15050000000E+03 0. -1.
     100001    1    1    2    0    0 -0.42867689047E+03 -0.13567226404E+04  0.63405748596E+04  0.65000000000E+04  0.15050000000E+03 0.  1.
</event>
<event>
 4    1  0.5640637E-004  0.6500000E+04  0.7818608E-02  0.7223770E-01
         52   -1    0    0    0    0  0.00000000000E+00  0.00000000000E+00  0.64930732323E+04  0.65000000000E+04  0.30000000000E+03 0.  1.
        -52   -1    0    0    0    0 -0.00000000000E+00 -0.00000000000E+00 -0.64930732323E+04  0.65000000000E+04  0.30000000000E+03 0. -1.
     100001    1    1    2    0    0  0.24195790970E+04 -0.24112545259E+04 -0.55280049163E+04  0.65000000000E+04  0.15050000000E+03 0. -1.
     100001    1    1    2    0    0 -0.24195790970E+04  0.24112545259E+04  0.55280049163E+04  0.65000000000E+04  0.15050000000E+03 0.  1.
</event>
<event>
 4    1  0.5640637E-004  0.6500000E+04  0.7818608E-02  0.7223770E-01
         52   -1    0    0    0    0  0.00000000000E+00  0.00000000000E+00  0.64930732323E+04  0.65000000000E+04  0.30000000000E+03 0.  1.
        -52   -1    0    0    0    0 -0.00000000000E+00 -0.00000000000E+00 -0.64930732323E+04  0.65000000000E+04  0.30000000000E+03 0. -1.
     100001    1    1    2    0    0  0.79241676084E+03 -0.44439229216E+03 -0.64344340014E+04  0.65000000000E+04  0.15050000000E+03 0. -1.
     100001    1    1    2    0    0 -0.79241676084E+03  0.44439229216E+03  0.64344340014E+04  0.65000000000E+04  0.15050000000E+03 0.  1.
</event>
<event>
 4    1  0.5640637E-004  0.6500000E+04  0.7818608E-02  0.7223770E-01
         52   -1    0    0    0    0  0.00000000000E+00  0.00000000000E+00  0.64930732323E+04  0.65000000000E+04  0.30000000000E+03 0.  1.
        -52   -1    0    0    0    0 -0.00000000000E+00 -0.00000000000E+00 -0.64930732323E+04  0.65000000000E+04  0.30000000000E+03 0.  1.
     100001    1    1    2    0    0  0.39395736140E+03 -0.15841687022E+03 -0.64843697799E+04  0.65000000000E+04  0.15050000000E+03 0.  1.
     100001    1    1    2    0    0 -0.39395736140E+03  0.15841687022E+03  0.64843697799E+04  0.65000000000E+04  0.15050000000E+03 0.  1.
</event>
<event>
 4    1  0.5640637E-004  0.6500000E+04  0.7818608E-02  0.7223770E-01
         52   -1    0    0    0    0  0.00000000000E+00  0.00000000000E+00  0.64930732323E+04  0.65000000000E+04  0.30000000000E+03 0. -1.
        -52   -1    0    0    0    0 -0.00000000000E+00 -0.00000000000E+00 -0.64930732323E+04  0.65000000000E+04  0.30000000000E+03 0.  1.
     100001    1    1    2    0    0 -0.22533691059E+04  0.21990762195E+04 -0.56845176756E+04  0.65000000000E+04  0.15050000000E+03 0.  1.
     100001    1    1    2    0    0  0.22533691059E+04 -0.21990762195E+04  0.56845176756E+04  0.65000000000E+04  0.15050000000E+03 0. -1.
</event>
<event>
 4    1  0.5743876E-004  0.6500000E+04  0.7818608E-02  0.7223770E-01
         52   -1    0    0    0    0  0.00000000000E+00  0.00000000000E+00  0.64930732323E+04  0.65000000000E+04  0.30000000000E+03 0.  1.
        -52   -1    0    0    0    0 -0.00000000000E+00 -0.00000000000E+00 -0.64930732323E+04  0.65000000000E+04  0.30000000000E+03 0.  1.
     100001    1    1    2    0    0  0.22178671228E+03  0.11777222341E+03 -0.64934035842E+04  0.65000000000E+04  0.15050000000E+03 0.  1.
     100001    1    1    2    0    0 -0.22178671228E+03 -0.11777222341E+03  0.64934035842E+04  0.65000000000E+04  0.15050000000E+03 0.  1.
</event>
<event>
 4    1  0.5640637E-004  0.6500000E+04  0.7818608E-02  0.7223770E-01
         52   -1    0    0    0    0  0.00000000000E+00  0.00000000000E+00  0.64930732323E+04  0.65000000000E+04  0.30000000000E+03 0. -1.
        -52   -1    0    0    0    0 -0.00000000000E+00 -0.00000000000E+00 -0.64930732323E+04  0.65000000000E+04  0.30000000000E+03 0. -1.
     100001    1    1    2    0    0 -0.22749862608E+03 -0.33279482089E+03  0.64857414173E+04  0.65000000000E+04  0.15050000000E+03 0. -1.
     100001    1    1    2    0    0  0.22749862608E+03  0.33279482089E+03 -0.64857414173E+04  0.65000000000E+04  0.15050000000E+03 0. -1.
</event>
<event>
 4    1  0.5640637E-004  0.6500000E+04  0.7818608E-02  0.7223770E-01
         52   -1    0    0    0    0  0.00000000000E+00  0.00000000000E+00  0.64930732323E+04  0.65000000000E+04  0.30000000000E+03 0. -1.
        -52   -1    0    0    0    0 -0.00000000000E+00 -0.00000000000E+00 -0.64930732323E+04  0.65000000000E+04  0.30000000000E+03 0.  1.
     100001    1    1    2    0    0  0.12797193358E+03 -0.40209117430E+03  0.64845428229E+04  0.65000000000E+04  0.15050000000E+03 0. -1.
     100001    1    1    2    0    0 -0.12797193358E+03  0.40209117430E+03 -0.64845428229E+04  0.65000000000E+04  0.15050000000E+03 0.  1.
</event>
<event>
 4    1  0.5640637E-004  0.6500000E+04  0.7818608E-02  0.7223770E-01
         52   -1    0    0    0    0  0.00000000000E+00  0.00000000000E+00  0.64930732323E+04  0.65000000000E+04  0.30000000000E+03 0.  1.
        -52   -1    0    0    0    0 -0.00000000000E+00 -0.00000000000E+00 -0.64930732323E+04  0.65000000000E+04  0.30000000000E+03 0.  1.
     100001    1    1    2    0    0  0.25805388875E+03 -0.52511699849E+03  0.64718629527E+04  0.65000000000E+04  0.15050000000E+03 0.  1.
     100001    1    1    2    0    0 -0.25805388875E+03  0.52511699849E+03 -0.64718629527E+04  0.65000000000E+04  0.15050000000E+03 0.  1.
</event>
<event>
 4    1  0.5734715E-004  0.6500000E+04  0.7818608E-02  0.7223770E-01
         52   -1    0    0    0    0  0.00000000000E+00  0.00000000000E+00  0.64930732323E+04  0.65000000000E+04  0.30000000000E+03 0. -1.
        -52   -1    0    0    0    0 -0.00000000000E+00 -0.00000000000E+00 -0.64930732323E+04  0.65000000000E+04  0.30000000000E+03 0. -1.
     100001    1    1    2    0    0  0.15000313220E+03  0.16538946740E+03  0.64944203078E+04  0.65000000000E+04  0.15050000000E+03 0. -1.
     100001    1    1    2    0    0 -0.15000313220E+03 -0.16538946740E+03 -0.64944203078E+04  0.65000000000E+04  0.15050000000E+03 0. -1.
</event>
<event>
 4    1  0.5640637E-004  0.6500000E+04  0.7818608E-02  0.7223770E-01
         52   -1    0    0    0    0  0.00000000000E+00  0.00000000000E+00  0.64930732323E+04  0.65000000000E+04  0.30000000000E+03 0. -1.
        -52   -1    0    0    0    0 -0.00000000000E+00 -0.00000000000E+00 -0.64930732323E+04  0.65000000000E+04  0.30000000000E+03 0.  1.
     100001    1    1    2    0    0 -0.41555734377E+03 -0.83819428260E+02  0.64844148655E+04  0.65000000000E+04  0.15050000000E+03 0. -1.
     100001    1    1    2    0    0  0.41555734377E+03  0.83819428260E+02 -0.64844148655E+04  0.65000000000E+04  0.15050000000E+03 0.  1.
</event>
<event>
 4    1  0.5640637E-004  0.6500000E+04  0.7818608E-02  0.7223770E-01
         52   -1    0    0    0    0  0.00000000000E+00  0.00000000000E+00  0.64930732323E+04  0.65000000000E+04  0.30000000000E+03 0.  1.
        -52   -1    0    0    0    0 -0.00000000000E+00 -0.00000000000E+00 -0.64930732323E+04  0.65000000000E+04  0.30000000000E+03 0. -1.
     100001    1    1    2    0    0  0.23981134611E+03 -0.10470501037E+04 -0.64088631089E+04  0.65000000000E+04  0.15050000000E+03 0. -1.
     100001    1    1    2    0    0 -0.23981134611E+03  0.10470501037E+04  0.64088631089E+04  0.65000000000E+04  0.15050000000E+03 0.  1.
</event>
<event>
 4    1  0.8860962E-004  0.6500000E+04  0.7818608E-02  0.7223770E-01
         52   -1    0    0    0    0  0.00000000000E+00  0.00000000000E+00  0.64930732323E+04  0.65000000000E+04  0.30000000000E+03 0. -1.
        -52   -1    0    0    0    0 -0.00000000000E+00 -0.00000000000E+00 -0.64930732323E+04  0.65000000000E+04  0.30000000000E+03 0. -1.
     100001    1    1    2    0    0 -0.10893202523E+03  0.22283928745E+01 -0.64973439649E+04  0.65000000000E+04  0.15050000000E+03 0. -1.
     100001    1    1    2    0    0  0.10893202523E+03 -0.22283928745E+01  0.64973439649E+04  0.65000000000E+04  0.15050000000E+03 0. -1.
</event>
<event>
 4    1  0.5640637E-004  0.6500000E+04  0.7818608E-02  0.7223770E-01
         52   -1    0    0    0    0  0.00000000000E+00  0.00000000000E+00  0.64930732323E+04  0.65000000000E+04  0.30000000000E+03 0.  1.
        -52   -1    0    0    0    0 -0.00000000000E+00 -0.00000000000E+00 -0.64930732323E+04  0.65000000000E+04  0.30000000000E+03 0. -1.
     100001    1    1    2    0    0  0.12498943591E+02 -0.44369680447E+03  0.64830800297E+04  0.65000000000E+04  0.15050000000E+03 0.  1.
     100001    1    1    2    0    0 -0.12498943591E+02  0.44369680447E+03 -0.64830800297E+04  0.65000000000E+04  0.15050000000E+03 0. -1.
</event>
<event>
 4    1  0.5640637E-004  0.6500000E+04  0.7818608E-02  0.7223770E-01
         52   -1    0    0    0    0  0.00000000000E+00  0.00000000000E+00  0.64930732323E+04  0.65000000000E+04  0.30000000000E+03 0. -1.
        -52   -1    0    0    0    0 -0.00000000000E+00 -0.00000000000E+00 -0.64930732323E+04  0.65000000000E+04  0.30000000000E+03 0.  1.
     100001    1    1    2    0    0 -0.41764618446E+03  0.29979154163E+04 -0.57502543049E+04  0.65000000000E+04  0.15050000000E+03 0.  1.
     100001    1    1    2    0    0  0.41764618446E+03 -0.29979154163E+04  0.57502543049E+04  0.65000000000E+04  0.15050000000E+03 0. -1.
</event>
<event>
 4    1  0.5640637E-004  0.6500000E+04  0.7818608E-02  0.7223770E-01
         52   -1    0    0    0    0  0.00000000000E+00  0.00000000000E+00  0.64930732323E+04  0.65000000000E+04  0.30000000000E+03 0. -1.
        -52   -1    0    0    0    0 -0.00000000000E+00 -0.00000000000E+00 -0.64930732323E+04  0.65000000000E+04  0.30000000000E+03 0.  1.
     100001    1    1    2    0    0 -0.25977304722E+03 -0.71000118050E+03 -0.64541278294E+04  0.65000000000E+04  0.15050000000E+03 0.  1.
     100001    1    1    2    0    0  0.25977304722E+03  0.71000118050E+03  0.64541278294E+04  0.65000000000E+04  0.15050000000E+03 0. -1.
</event>
<event>
 4    1  0.5640637E-004  0.6500000E+04  0.7818608E-02  0.7223770E-01
         52   -1    0    0    0    0  0.00000000000E+00  0.00000000000E+00  0.64930732323E+04  0.65000000000E+04  0.30000000000E+03 0.  1.
        -52   -1    0    0    0    0 -0.00000000000E+00 -0.00000000000E+00 -0.64930732323E+04  0.65000000000E+04  0.30000000000E+03 0. -1.
     100001    1    1    2    0    0 -0.54296262747E+03 -0.55000434300E+03  0.64521342638E+04  0.65000000000E+04  0.15050000000E+03 0.  1.
     100001    1    1    2    0    0  0.54296262747E+03  0.55000434300E+03 -0.64521342638E+04  0.65000000000E+04  0.15050000000E+03 0. -1.
</event>
<event>
 4    1  0.5640637E-004  0.6500000E+04  0.7818608E-02  0.7223770E-01
         52   -1    0    0    0    0  0.00000000000E+00  0.00000000000E+00  0.64930732323E+04  0.65000000000E+04  0.30000000000E+03 0. -1.
        -52   -1    0    0    0    0 -0.00000000000E+00 -0.00000000000E+00 -0.64930732323E+04  0.65000000000E+04  0.30000000000E+03 0.  1.
     100001    1    1    2    0    0  0.13770943351E+04  0.53925437986E+04 -0.33543154775E+04  0.65000000000E+04  0.15050000000E+03 0.  1.
     100001    1    1    2    0    0 -0.13770943351E+04 -0.53925437986E+04  0.33543154775E+04  0.65000000000E+04  0.15050000000E+03 0. -1.
</event>
<event>
 4    1  0.5640637E-004  0.6500000E+04  0.7818608E-02  0.7223770E-01
         52   -1    0    0    0    0  0.00000000000E+00  0.00000000000E+00  0.64930732323E+04  0.65000000000E+04  0.30000000000E+03 0.  1.
        -52   -1    0    0    0    0 -0.00000000000E+00 -0.00000000000E+00 -0.64930732323E+04  0.65000000000E+04  0.30000000000E+03 0.  1.
     100001    1    1    2    0    0  0.11365205819E+03  0.19358385974E+03  0.64943789733E+04  0.65000000000E+04  0.15050000000E+03 0.  1.
     100001    1    1    2    0    0 -0.11365205819E+03 -0.19358385974E+03 -0.64943789733E+04  0.65000000000E+04  0.15050000000E+03 0.  1.
</event>
<event>
 4    1  0.5640637E-004  0.6500000E+04  0.7818608E-02  0.7223770E-01
         52   -1    0    0    0    0  0.00000000000E+00  0.00000000000E+00  0.64930732323E+04  0.65000000000E+04  0.30000000000E+03 0.  1.
        -52   -1    0    0    0    0 -0.00000000000E+00 -0.00000000000E+00 -0.64930732323E+04  0.65000000000E+04  0.30000000000E+03 0. -1.
     100001    1    1    2    0    0  0.40538227921E+03 -0.18495664837E+03  0.64829627483E+04  0.65000000000E+04  0.15050000000E+03 0.  1.
     100001    1    1    2    0    0 -0.40538227921E+03  0.18495664837E+03 -0.64829627483E+04  0.65000000000E+04  0.15050000000E+03 0. -1.
</event>
<event>
 4    1  0.5640637E-004  0.6500000E+04  0.7818608E-02  0.7223770E-01
         52   -1    0    0    0    0  0.00000000000E+00  0.00000000000E+00  0.64930732323E+04  0.65000000000E+04  0.30000000000E+03 0.  1.
        -52   -1    0    0    0    0 -0.00000000000E+00 -0.00000000000E+00 -0.64930732323E+04  0.65000000000E+04  0.30000000000E+03 0. -1.
     100001    1    1    2    0    0 -0.45307156067E+03  0.18937427152E+03 -0.64796769438E+04  0.65000000000E+04  0.15050000000E+03 0. -1.
     100001    1    1    2    0    0  0.45307156067E+03 -0.18937427152E+03  0.64796769438E+04  0.65000000000E+04  0.15050000000E+03 0.  1.
</event>
<event>
 4    1  0.5640637E-004  0.6500000E+04  0.7818608E-02  0.7223770E-01
         52   -1    0    0    0    0  0.00000000000E+00  0.00000000000E+00  0.64930732323E+04  0.65000000000E+04  0.30000000000E+03 0.  1.
        -52   -1    0    0    0    0 -0.00000000000E+00 -0.00000000000E+00 -0.64930732323E+04  0.65000000000E+04  0.30000000000E+03 0. -1.
     100001    1    1    2    0    0 -0.32728841951E+04  0.50811626951E+04 -0.23869152606E+04  0.65000000000E+04  0.15050000000E+03 0. -1.
     100001    1    1    2    0    0  0.32728841951E+04 -0.50811626951E+04  0.23869152606E+04  0.65000000000E+04  0.15050000000E+03 0.  1.
</event>
<event>
 4    1  0.5640637E-004  0.6500000E+04  0.7818608E-02  0.7223770E-01
         52   -1    0    0    0    0  0.00000000000E+00  0.00000000000E+00  0.64930732323E+04  0.65000000000E+04  0.30000000000E+03 0. -1.
        -52   -1    0    0    0    0 -0.00000000000E+00 -0.00000000000E+00 -0.64930732323E+04  0.65000000000E+04  0.30000000000E+03 0.  1.
     100001    1    1    2    0    0 -0.12622373481E+04 -0.39606699878E+04  0.49947171967E+04  0.65000000000E+04  0.15050000000E+03 0. -1.
     100001    1    1    2    0    0  0.12622373481E+04  0.39606699878E+04 -0.49947171967E+04  0.65000000000E+04  0.15050000000E+03 0.  1.
</event>
<event>
 4    1  0.5640637E-004  0.6500000E+04  0.7818608E-02  0.7223770E-01
         52   -1    0    0    0    0  0.00000000000E+00  0.00000000000E+00  0.64930732323E+04  0.65000000000E+04  0.30000000000E+03 0.  1.
        -52   -1    0    0    0    0 -0.00000000000E+00 -0.00000000000E+00 -0.64930732323E+04  0.65000000000E+04  0.30000000000E+03 0. -1.
     100001    1    1    2    0    0 -0.25051990741E+04  0.51233118564E+03  0.59740140697E+04  0.65000000000E+04  0.15050000000E+03 0.  1.
     100001    1    1    2    0    0  0.25051990741E+04 -0.51233118564E+03 -0.59740140697E+04  0.65000000000E+04  0.15050000000E+03 0. -1.
</event>
<event>
 4    1  0.5640637E-004  0.6500000E+04  0.7818608E-02  0.7223770E-01
         52   -1    0    0    0    0  0.00000000000E+00  0.00000000000E+00  0.64930732323E+04  0.65000000000E+04  0.30000000000E+03 0. -1.
        -52   -1    0    0    0    0 -0.00000000000E+00 -0.00000000000E+00 -0.64930732323E+04  0.65000000000E+04  0.30000000000E+03 0.  1.
     100001    1    1    2    0    0  0.13298275109E+03 -0.11643159160E+04 -0.63917160282E+04  0.65000000000E+04  0.15050000000E+03 0.  1.
     100001    1    1    2    0    0 -0.13298275109E+03  0.11643159160E+04  0.63917160282E+04  0.65000000000E+04  0.15050000000E+03 0. -1.
</event>
<event>
 4    1  0.5640637E-004  0.6500000E+04  0.7818608E-02  0.7223770E-01
         52   -1    0    0    0    0  0.00000000000E+00  0.00000000000E+00  0.64930732323E+04  0.65000000000E+04  0.30000000000E+03 0. -1.
        -52   -1    0    0    0    0 -0.00000000000E+00 -0.00000000000E+00 -0.64930732323E+04  0.65000000000E+04  0.30000000000E+03 0.  1.
     100001    1    1    2    0    0 -0.19398504191E+04 -0.18727567260E+04  0.59124540038E+04  0.65000000000E+04  0.15050000000E+03 0. -1.
     100001    1    1    2    0    0  0.19398504191E+04  0.18727567260E+04 -0.59124540038E+04  0.65000000000E+04  0.15050000000E+03 0.  1.
</event>
<event>
 4    1  0.5640637E-004  0.6500000E+04  0.7818608E-02  0.7223770E-01
         52   -1    0    0    0    0  0.00000000000E+00  0.00000000000E+00  0.64930732323E+04  0.65000000000E+04  0.30000000000E+03 0.  1.
        -52   -1    0    0    0    0 -0.00000000000E+00 -0.00000000000E+00 -0.64930732323E+04  0.65000000000E+04  0.30000000000E+03 0. -1.
     100001    1    1    2    0    0  0.73428432364E+03 -0.42308598385E+03 -0.64427614058E+04  0.65000000000E+04  0.15050000000E+03 0. -1.
     100001    1    1    2    0    0 -0.73428432364E+03  0.42308598385E+03  0.64427614058E+04  0.65000000000E+04  0.15050000000E+03 0.  1.
</event>
<event>
 4    1  0.5640637E-004  0.6500000E+04  0.7818608E-02  0.7223770E-01
         52   -1    0    0    0    0  0.00000000000E+00  0.00000000000E+00  0.64930732323E+04  0.65000000000E+04  0.30000000000E+03 0. -1.
        -52   -1    0    0    0    0 -0.00000000000E+00 -0.00000000000E+00 -0.64930732323E+04  0.65000000000E+04  0.30000000000E+03 0.  1.
     100001    1    1    2    0    0  0.81575983531E+03  0.30564492452E+03 -0.64396014489E+04  0.65000000000E+04  0.15050000000E+03 0.  1.
     100001    1    1    2    0    0 -0.81575983531E+03 -0.30564492452E+03  0.64396014489E+04  0.65000000000E+04  0.15050000000E+03 0. -1.
</event>
<event>
 4    1  0.5640637E-004  0.6500000E+04  0.7818608E-02  0.7223770E-01
         52   -1    0    0    0    0  0.00000000000E+00  0.00000000000E+00  0.64930732323E+04  0.65000000000E+04  0.30000000000E+03 0.  1.
        -52   -1    0    0    0    0 -0.00000000000E+00 -0.00000000000E+00 -0.64930732323E+04  0.65000000000E+04  0.30000000000E+03 0. -1.
     100001    1    1    2    0    0 -0.60634430015E+03  0.11789315390E+04 -0.63615891699E+04  0.65000000000E+04  0.15050000000E+03 0. -1.
     100001    1    1    2    0    0  0.60634430015E+03 -0.11789315390E+04  0.63615891699E+04  0.65000000000E+04  0.15050000000E+03 0.  1.
</event>
<event>
 4    1  0.5640637E-004  0.6500000E+04  0.7818608E-02  0.7223770E-01
         52   -1    0    0    0    0  0.00000000000E+00  0.00000000000E+00  0.64930732323E+04  0.65000000000E+04  0.30000000000E+03 0. -1.
        -52   -1    0    0    0    0 -0.00000000000E+00 -0.00000000000E+00 -0.64930732323E+04  0.65000000000E+04  0.30000000000E+03 0.  1.
     100001    1    1    2    0    0  0.38567770475E+03 -0.14713320424E+03 -0.64851333277E+04  0.65000000000E+04  0.15050000000E+03 0.  1.
     100001    1    1    2    0    0 -0.38567770475E+03  0.14713320424E+03  0.64851333277E+04  0.65000000000E+04  0.15050000000E+03 0. -1.
</event>
<event>
 4    1  0.5640637E-004  0.6500000E+04  0.7818608E-02  0.7223770E-01
         52   -1    0    0    0    0  0.00000000000E+00  0.00000000000E+00  0.64930732323E+04  0.65000000000E+04  0.30000000000E+03 0. -1.
        -52   -1    0    0    0    0 -0.00000000000E+00 -0.00000000000E+00 -0.64930732323E+04  0.65000000000E+04  0.30000000000E+03 0.  1.
     100001    1    1    2    0    0  0.20178338961E+04  0.12932340651E+00 -0.61770297151E+04  0.65000000000E+04  0.15050000000E+03 0.  1.
     100001    1    1    2    0    0 -0.20178338961E+04 -0.12932340651E+00  0.61770297151E+04  0.65000000000E+04  0.15050000000E+03 0. -1.
</event>
<event>
 4    1  0.5640637E-004  0.6500000E+04  0.7818608E-02  0.7223770E-01
         52   -1    0    0    0    0  0.00000000000E+00  0.00000000000E+00  0.64930732323E+04  0.65000000000E+04  0.30000000000E+03 0. -1.
        -52   -1    0    0    0    0 -0.00000000000E+00 -0.00000000000E+00 -0.64930732323E+04  0.65000000000E+04  0.30000000000E+03 0.  1.
     100001    1    1    2    0    0 -0.44949299158E+03 -0.36784445261E+02 -0.64825884263E+04  0.65000000000E+04  0.15050000000E+03 0.  1.
     100001    1    1    2    0    0  0.44949299158E+03  0.36784445261E+02  0.64825884263E+04  0.65000000000E+04  0.15050000000E+03 0. -1.
</event>
<event>
 4    1  0.5640637E-004  0.6500000E+04  0.7818608E-02  0.7223770E-01
         52   -1    0    0    0    0  0.00000000000E+00  0.00000000000E+00  0.64930732323E+04  0.65000000000E+04  0.30000000000E+03 0. -1.
        -52   -1    0    0    0    0 -0.00000000000E+00 -0.00000000000E+00 -0.64930732323E+04  0.65000000000E+04  0.30000000000E+03 0.  1.
     100001    1    1    2    0    0  0.30810325390E+03  0.52416854367E+03  0.64697503408E+04  0.65000000000E+04  0.15050000000E+03 0. -1.
     100001    1    1    2    0    0 -0.30810325390E+03 -0.52416854367E+03 -0.64697503408E+04  0.65000000000E+04  0.15050000000E+03 0.  1.
</event>
<event>
 4    1  0.5640637E-004  0.6500000E+04  0.7818608E-02  0.7223770E-01
         52   -1    0    0    0    0  0.00000000000E+00  0.00000000000E+00  0.64930732323E+04  0.65000000000E+04  0.30000000000E+03 0. -1.
        -52   -1    0    0    0    0 -0.00000000000E+00 -0.00000000000E+00 -0.64930732323E+04  0.65000000000E+04  0.30000000000E+03 0. -1.
     100001    1    1    2    0    0  0.45202620795E+02  0.28593035658E+03 -0.64918063976E+04  0.65000000000E+04  0.15050000000E+03 0. -1.
     100001    1    1    2    0    0 -0.45202620795E+02 -0.28593035658E+03  0.64918063976E+04  0.65000000000E+04  0.15050000000E+03 0. -1.
</event>
<event>
 4    1  0.5640637E-004  0.6500000E+04  0.7818608E-02  0.7223770E-01
         52   -1    0    0    0    0  0.00000000000E+00  0.00000000000E+00  0.64930732323E+04  0.65000000000E+04  0.30000000000E+03 0. -1.
        -52   -1    0    0    0    0 -0.00000000000E+00 -0.00000000000E+00 -0.64930732323E+04  0.65000000000E+04  0.30000000000E+03 0.  1.
     100001    1    1    2    0    0 -0.33298408536E+03 -0.48563266905E+03 -0.64715247245E+04  0.65000000000E+04  0.15050000000E+03 0.  1.
     100001    1    1    2    0    0  0.33298408536E+03  0.48563266905E+03  0.64715247245E+04  0.65000000000E+04  0.15050000000E+03 0. -1.
</event>
<event>
 4    1  0.5640637E-004  0.6500000E+04  0.7818608E-02  0.7223770E-01
         52   -1    0    0    0    0  0.00000000000E+00  0.00000000000E+00  0.64930732323E+04  0.65000000000E+04  0.30000000000E+03 0. -1.
        -52   -1    0    0    0    0 -0.00000000000E+00 -0.00000000000E+00 -0.64930732323E+04  0.65000000000E+04  0.30000000000E+03 0.  1.
     100001    1    1    2    0    0 -0.70103897804E+03 -0.46047433319E+03  0.64439007976E+04  0.65000000000E+04  0.15050000000E+03 0. -1.
     100001    1    1    2    0    0  0.70103897804E+03  0.46047433319E+03 -0.64439007976E+04  0.65000000000E+04  0.15050000000E+03 0.  1.
</event>
<event>
 4    1  0.5640637E-004  0.6500000E+04  0.7818608E-02  0.7223770E-01
         52   -1    0    0    0    0  0.00000000000E+00  0.00000000000E+00  0.64930732323E+04  0.65000000000E+04  0.30000000000E+03 0. -1.
        -52   -1    0    0    0    0 -0.00000000000E+00 -0.00000000000E+00 -0.64930732323E+04  0.65000000000E+04  0.30000000000E+03 0.  1.
     100001    1    1    2    0    0 -0.23209736850E+04  0.21306921903E+03 -0.60658909000E+04  0.65000000000E+04  0.15050000000E+03 0.  1.
     100001    1    1    2    0    0  0.23209736850E+04 -0.21306921903E+03  0.60658909000E+04  0.65000000000E+04  0.15050000000E+03 0. -1.
</event>
<event>
 4    1  0.5640637E-004  0.6500000E+04  0.7818608E-02  0.7223770E-01
         52   -1    0    0    0    0  0.00000000000E+00  0.00000000000E+00  0.64930732323E+04  0.65000000000E+04  0.30000000000E+03 0. -1.
        -52   -1    0    0    0    0 -0.00000000000E+00 -0.00000000000E+00 -0.64930732323E+04  0.65000000000E+04  0.30000000000E+03 0.  1.
     100001    1    1    2    0    0  0.28757837605E+04 -0.46706837738E+04 -0.34845273133E+04  0.65000000000E+04  0.15050000000E+03 0.  1.
     100001    1    1    2    0    0 -0.28757837605E+04  0.46706837738E+04  0.34845273133E+04  0.65000000000E+04  0.15050000000E+03 0. -1.
</event>
<event>
 4    1  0.5640637E-004  0.6500000E+04  0.7818608E-02  0.7223770E-01
         52   -1    0    0    0    0  0.00000000000E+00  0.00000000000E+00  0.64930732323E+04  0.65000000000E+04  0.30000000000E+03 0.  1.
        -52   -1    0    0    0    0 -0.00000000000E+00 -0.00000000000E+00 -0.64930732323E+04  0.65000000000E+04  0.30000000000E+03 0. -1.
     100001    1    1    2    0    0 -0.94592241491E+03  0.14728562861E+04  0.62580567987E+04  0.65000000000E+04  0.15050000000E+03 0.  1.
     100001    1    1    2    0    0  0.94592241491E+03 -0.14728562861E+04 -0.62580567987E+04  0.65000000000E+04  0.15050000000E+03 0. -1.
</event>
<event>
 4    1  0.5640637E-004  0.6500000E+04  0.7818608E-02  0.7223770E-01
         52   -1    0    0    0    0  0.00000000000E+00  0.00000000000E+00  0.64930732323E+04  0.65000000000E+04  0.30000000000E+03 0.  1.
        -52   -1    0    0    0    0 -0.00000000000E+00 -0.00000000000E+00 -0.64930732323E+04  0.65000000000E+04  0.30000000000E+03 0. -1.
     100001    1    1    2    0    0  0.30197145484E+04 -0.33340531786E+04  0.46896442507E+04  0.65000000000E+04  0.15050000000E+03 0.  1.
     100001    1    1    2    0    0 -0.30197145484E+04  0.33340531786E+04 -0.46896442507E+04  0.65000000000E+04  0.15050000000E+03 0. -1.
</event>
<event>
 4    1  0.5640637E-004  0.6500000E+04  0.7818608E-02  0.7223770E-01
         52   -1    0    0    0    0  0.00000000000E+00  0.00000000000E+00  0.64930732323E+04  0.65000000000E+04  0.30000000000E+03 0. -1.
        -52   -1    0    0    0    0 -0.00000000000E+00 -0.00000000000E+00 -0.64930732323E+04  0.65000000000E+04  0.30000000000E+03 0.  1.
     100001    1    1    2    0    0  0.13052330684E+04 -0.15382045983E+04 -0.61771873050E+04  0.65000000000E+04  0.15050000000E+03 0.  1.
     100001    1    1    2    0    0 -0.13052330684E+04  0.15382045983E+04  0.61771873050E+04  0.65000000000E+04  0.15050000000E+03 0. -1.
</event>
<event>
 4    1  0.5640637E-004  0.6500000E+04  0.7818608E-02  0.7223770E-01
         52   -1    0    0    0    0  0.00000000000E+00  0.00000000000E+00  0.64930732323E+04  0.65000000000E+04  0.30000000000E+03 0. -1.
        -52   -1    0    0    0    0 -0.00000000000E+00 -0.00000000000E+00 -0.64930732323E+04  0.65000000000E+04  0.30000000000E+03 0.  1.
     100001    1    1    2    0    0 -0.44937314333E+04 -0.46673704207E+04 -0.49938052707E+03  0.65000000000E+04  0.15050000000E+03 0. -1.
     100001    1    1    2    0    0  0.44937314333E+04  0.46673704207E+04  0.49938052707E+03  0.65000000000E+04  0.15050000000E+03 0.  1.
</event>
<event>
 4    1  0.5640637E-004  0.6500000E+04  0.7818608E-02  0.7223770E-01
         52   -1    0    0    0    0  0.00000000000E+00  0.00000000000E+00  0.64930732323E+04  0.65000000000E+04  0.30000000000E+03 0. -1.
        -52   -1    0    0    0    0 -0.00000000000E+00 -0.00000000000E+00 -0.64930732323E+04  0.65000000000E+04  0.30000000000E+03 0.  1.
     100001    1    1    2    0    0  0.36798528172E+04 -0.15865079232E+04  0.51155669875E+04  0.65000000000E+04  0.15050000000E+03 0. -1.
     100001    1    1    2    0    0 -0.36798528172E+04  0.15865079232E+04 -0.51155669875E+04  0.65000000000E+04  0.15050000000E+03 0.  1.
</event>
<event>
 4    1  0.5640637E-004  0.6500000E+04  0.7818608E-02  0.7223770E-01
         52   -1    0    0    0    0  0.00000000000E+00  0.00000000000E+00  0.64930732323E+04  0.65000000000E+04  0.30000000000E+03 0.  1.
        -52   -1    0    0    0    0 -0.00000000000E+00 -0.00000000000E+00 -0.64930732323E+04  0.65000000000E+04  0.30000000000E+03 0. -1.
     100001    1    1    2    0    0 -0.35300815727E+03 -0.21710106900E+04 -0.61146911267E+04  0.65000000000E+04  0.15050000000E+03 0. -1.
     100001    1    1    2    0    0  0.35300815727E+03  0.21710106900E+04  0.61146911267E+04  0.65000000000E+04  0.15050000000E+03 0.  1.
</event>
<event>
 4    1  0.5640637E-004  0.6500000E+04  0.7818608E-02  0.7223770E-01
         52   -1    0    0    0    0  0.00000000000E+00  0.00000000000E+00  0.64930732323E+04  0.65000000000E+04  0.30000000000E+03 0. -1.
        -52   -1    0    0    0    0 -0.00000000000E+00 -0.00000000000E+00 -0.64930732323E+04  0.65000000000E+04  0.30000000000E+03 0.  1.
     100001    1    1    2    0    0  0.13968276610E+04 -0.49789209231E+03  0.63267942672E+04  0.65000000000E+04  0.15050000000E+03 0. -1.
     100001    1    1    2    0    0 -0.13968276610E+04  0.49789209231E+03 -0.63267942672E+04  0.65000000000E+04  0.15050000000E+03 0.  1.
</event>
<event>
 4    1  0.5640637E-004  0.6500000E+04  0.7818608E-02  0.7223770E-01
         52   -1    0    0    0    0  0.00000000000E+00  0.00000000000E+00  0.64930732323E+04  0.65000000000E+04  0.30000000000E+03 0.  1.
        -52   -1    0    0    0    0 -0.00000000000E+00 -0.00000000000E+00 -0.64930732323E+04  0.65000000000E+04  0.30000000000E+03 0.  1.
     100001    1    1    2    0    0 -0.22494351933E+03 -0.20695719686E+03 -0.64910645415E+04  0.65000000000E+04  0.15050000000E+03 0.  1.
     100001    1    1    2    0    0  0.22494351933E+03  0.20695719686E+03  0.64910645415E+04  0.65000000000E+04  0.15050000000E+03 0.  1.
</event>
<event>
 4    1  0.5640637E-004  0.6500000E+04  0.7818608E-02  0.7223770E-01
         52   -1    0    0    0    0  0.00000000000E+00  0.00000000000E+00  0.64930732323E+04  0.65000000000E+04  0.30000000000E+03 0. -1.
        -52   -1    0    0    0    0 -0.00000000000E+00 -0.00000000000E+00 -0.64930732323E+04  0.65000000000E+04  0.30000000000E+03 0.  1.
     100001    1    1    2    0    0 -0.21721000066E+02 -0.22407208368E+03  0.64943567541E+04  0.65000000000E+04  0.15050000000E+03 0. -1.
     100001    1    1    2    0    0  0.21721000066E+02  0.22407208368E+03 -0.64943567541E+04  0.65000000000E+04  0.15050000000E+03 0.  1.
</event>
<event>
 4    1  0.5640637E-004  0.6500000E+04  0.7818608E-02  0.7223770E-01
         52   -1    0    0    0    0  0.00000000000E+00  0.00000000000E+00  0.64930732323E+04  0.65000000000E+04  0.30000000000E+03 0.  1.
        -52   -1    0    0    0    0 -0.00000000000E+00 -0.00000000000E+00 -0.64930732323E+04  0.65000000000E+04  0.30000000000E+03 0. -1.
     100001    1    1    2    0    0 -0.37764366650E+04 -0.26765351923E+04  0.45609248217E+04  0.65000000000E+04  0.15050000000E+03 0.  1.
     100001    1    1    2    0    0  0.37764366650E+04  0.26765351923E+04 -0.45609248217E+04  0.65000000000E+04  0.15050000000E+03 0. -1.
</event>
<event>
 4    1  0.7356286E-004  0.6500000E+04  0.7818608E-02  0.7223770E-01
         52   -1    0    0    0    0  0.00000000000E+00  0.00000000000E+00  0.64930732323E+04  0.65000000000E+04  0.30000000000E+03 0. -1.
        -52   -1    0    0    0    0 -0.00000000000E+00 -0.00000000000E+00 -0.64930732323E+04  0.65000000000E+04  0.30000000000E+03 0. -1.
     100001    1    1    2    0    0 -0.56978373177E+02 -0.12767976337E+03  0.64967531193E+04  0.65000000000E+04  0.15050000000E+03 0. -1.
     100001    1    1    2    0    0  0.56978373177E+02  0.12767976337E+03 -0.64967531193E+04  0.65000000000E+04  0.15050000000E+03 0. -1.
</event>
<event>
 4    1  0.5640637E-004  0.6500000E+04  0.7818608E-02  0.7223770E-01
         52   -1    0    0    0    0  0.00000000000E+00  0.00000000000E+00  0.64930732323E+04  0.65000000000E+04  0.30000000000E+03 0. -1.
        -52   -1    0    0    0    0 -0.00000000000E+00 -0.00000000000E+00 -0.64930732323E+04  0.65000000000E+04  0.30000000000E+03 0.  1.
     100001    1    1    2    0    0 -0.71395859912E+02  0.13775547536E+03  0.64964048373E+04  0.65000000000E+04  0.15050000000E+03 0. -1.
     100001    1    1    2    0    0  0.71395859912E+02 -0.13775547536E+03 -0.64964048373E+04  0.65000000000E+04  0.15050000000E+03 0.  1.
</event>
<event>
 4    1  0.5640637E-004  0.6500000E+04  0.7818608E-02  0.7223770E-01
         52   -1    0    0    0    0  0.00000000000E+00  0.00000000000E+00  0.64930732323E+04  0.65000000000E+04  0.30000000000E+03 0.  1.
        -52   -1    0    0    0    0 -0.00000000000E+00 -0.00000000000E+00 -0.64930732323E+04  0.65000000000E+04  0.30000000000E+03 0. -1.
     100001    1    1    2    0    0 -0.93672786609E+03 -0.13763687591E+03 -0.64289148964E+04  0.65000000000E+04  0.15050000000E+03 0. -1.
     100001    1    1    2    0    0  0.93672786609E+03  0.13763687591E+03  0.64289148964E+04  0.65000000000E+04  0.15050000000E+03 0.  1.
</event>
<event>
 4    1  0.5640637E-004  0.6500000E+04  0.7818608E-02  0.7223770E-01
         52   -1    0    0    0    0  0.00000000000E+00  0.00000000000E+00  0.64930732323E+04  0.65000000000E+04  0.30000000000E+03 0.  1.
        -52   -1    0    0    0    0 -0.00000000000E+00 -0.00000000000E+00 -0.64930732323E+04  0.65000000000E+04  0.30000000000E+03 0. -1.
     100001    1    1    2    0    0 -0.52346747368E+03 -0.37245286202E+03  0.64664217632E+04  0.65000000000E+04  0.15050000000E+03 0.  1.
     100001    1    1    2    0    0  0.52346747368E+03  0.37245286202E+03 -0.64664217632E+04  0.65000000000E+04  0.15050000000E+03 0. -1.
</event>
<event>
 4    1  0.5640637E-004  0.6500000E+04  0.7818608E-02  0.7223770E-01
         52   -1    0    0    0    0  0.00000000000E+00  0.00000000000E+00  0.64930732323E+04  0.65000000000E+04  0.30000000000E+03 0.  1.
        -52   -1    0    0    0    0 -0.00000000000E+00 -0.00000000000E+00 -0.64930732323E+04  0.65000000000E+04  0.30000000000E+03 0. -1.
     100001    1    1    2    0    0  0.57647561041E+04 -0.18308355500E+04  0.23754953166E+04  0.65000000000E+04  0.15050000000E+03 0.  1.
     100001    1    1    2    0    0 -0.57647561041E+04  0.18308355500E+04 -0.23754953166E+04  0.65000000000E+04  0.15050000000E+03 0. -1.
</event>
<event>
 4    1  0.5640637E-004  0.6500000E+04  0.7818608E-02  0.7223770E-01
         52   -1    0    0    0    0  0.00000000000E+00  0.00000000000E+00  0.64930732323E+04  0.65000000000E+04  0.30000000000E+03 0.  1.
        -52   -1    0    0    0    0 -0.00000000000E+00 -0.00000000000E+00 -0.64930732323E+04  0.65000000000E+04  0.30000000000E+03 0. -1.
     100001    1    1    2    0    0  0.49604883747E+04 -0.84344656201E+03 -0.41121165756E+04  0.65000000000E+04  0.15050000000E+03 0. -1.
     100001    1    1    2    0    0 -0.49604883747E+04  0.84344656201E+03  0.41121165756E+04  0.65000000000E+04  0.15050000000E+03 0.  1.
</event>
<event>
 4    1  0.5640637E-004  0.6500000E+04  0.7818608E-02  0.7223770E-01
         52   -1    0    0    0    0  0.00000000000E+00  0.00000000000E+00  0.64930732323E+04  0.65000000000E+04  0.30000000000E+03 0. -1.
        -52   -1    0    0    0    0 -0.00000000000E+00 -0.00000000000E+00 -0.64930732323E+04  0.65000000000E+04  0.30000000000E+03 0.  1.
     100001    1    1    2    0    0 -0.36411897170E+04 -0.23523450383E+04 -0.48410288179E+04  0.65000000000E+04  0.15050000000E+03 0.  1.
     100001    1    1    2    0    0  0.36411897170E+04  0.23523450383E+04  0.48410288179E+04  0.65000000000E+04  0.15050000000E+03 0. -1.
</event>
<event>
 4    1  0.5640637E-004  0.6500000E+04  0.7818608E-02  0.7223770E-01
         52   -1    0    0    0    0  0.00000000000E+00  0.00000000000E+00  0.64930732323E+04  0.65000000000E+04  0.30000000000E+03 0.  1.
        -52   -1    0    0    0    0 -0.00000000000E+00 -0.00000000000E+00 -0.64930732323E+04  0.65000000000E+04  0.30000000000E+03 0. -1.
     100001    1    1    2    0    0 -0.16253066917E+03  0.13592408567E+04  0.63524324337E+04  0.65000000000E+04  0.15050000000E+03 0.  1.
     100001    1    1    2    0    0  0.16253066917E+03 -0.13592408567E+04 -0.63524324337E+04  0.65000000000E+04  0.15050000000E+03 0. -1.
</event>
<event>
 4    1  0.6886962E-004  0.6500000E+04  0.7818608E-02  0.7223770E-01
         52   -1    0    0    0    0  0.00000000000E+00  0.00000000000E+00  0.64930732323E+04  0.65000000000E+04  0.30000000000E+03 0. -1.
        -52   -1    0    0    0    0 -0.00000000000E+00 -0.00000000000E+00 -0.64930732323E+04  0.65000000000E+04  0.30000000000E+03 0.  1.
     100001    1    1    2    0    0  0.17391290641E+03 -0.12960261541E+03  0.64946368038E+04  0.65000000000E+04  0.15050000000E+03 0. -1.
     100001    1    1    2    0    0 -0.17391290641E+03  0.12960261541E+03 -0.64946368038E+04  0.65000000000E+04  0.15050000000E+03 0.  1.
</event>
<event>
 4    1  0.9612918E-004  0.6500000E+04  0.7818608E-02  0.7223770E-01
         52   -1    0    0    0    0  0.00000000000E+00  0.00000000000E+00  0.64930732323E+04  0.65000000000E+04  0.30000000000E+03 0. -1.
        -52   -1    0    0    0    0 -0.00000000000E+00 -0.00000000000E+00 -0.64930732323E+04  0.65000000000E+04  0.30000000000E+03 0. -1.
     100001    1    1    2    0    0 -0.71132243369E+00 -0.21255181774E+02  0.64982226386E+04  0.65000000000E+04  0.15050000000E+03 0. -1.
     100001    1    1    2    0    0  0.71132243369E+00  0.21255181774E+02 -0.64982226386E+04  0.65000000000E+04  0.15050000000E+03 0. -1.
</event>
<event>
 4    1  0.5640637E-004  0.6500000E+04  0.7818608E-02  0.7223770E-01
         52   -1    0    0    0    0  0.00000000000E+00  0.00000000000E+00  0.64930732323E+04  0.65000000000E+04  0.30000000000E+03 0. -1.
        -52   -1    0    0    0    0 -0.00000000000E+00 -0.00000000000E+00 -0.64930732323E+04  0.65000000000E+04  0.30000000000E+03 0.  1.
     100001    1    1    2    0    0  0.21005033359E+04  0.37408751776E+03  0.61380203661E+04  0.65000000000E+04  0.15050000000E+03 0. -1.
     100001    1    1    2    0    0 -0.21005033359E+04 -0.37408751776E+03 -0.61380203661E+04  0.65000000000E+04  0.15050000000E+03 0.  1.
</event>
<event>
 4    1  0.5640637E-004  0.6500000E+04  0.7818608E-02  0.7223770E-01
         52   -1    0    0    0    0  0.00000000000E+00  0.00000000000E+00  0.64930732323E+04  0.65000000000E+04  0.30000000000E+03 0. -1.
        -52   -1    0    0    0    0 -0.00000000000E+00 -0.00000000000E+00 -0.64930732323E+04  0.65000000000E+04  0.30000000000E+03 0.  1.
     100001    1    1    2    0    0  0.31819737855E+03 -0.70143756550E+03  0.64524480254E+04  0.65000000000E+04  0.15050000000E+03 0. -1.
     100001    1    1    2    0    0 -0.31819737855E+03  0.70143756550E+03 -0.64524480254E+04  0.65000000000E+04  0.15050000000E+03 0.  1.
</event>
<event>
 4    1  0.5640637E-004  0.6500000E+04  0.7818608E-02  0.7223770E-01
         52   -1    0    0    0    0  0.00000000000E+00  0.00000000000E+00  0.64930732323E+04  0.65000000000E+04  0.30000000000E+03 0.  1.
        -52   -1    0    0    0    0 -0.00000000000E+00 -0.00000000000E+00 -0.64930732323E+04  0.65000000000E+04  0.30000000000E+03 0. -1.
     100001    1    1    2    0    0  0.45525546187E+03 -0.80448411751E+02  0.64817914397E+04  0.65000000000E+04  0.15050000000E+03 0.  1.
     100001    1    1    2    0    0 -0.45525546187E+03  0.80448411751E+02 -0.64817914397E+04  0.65000000000E+04  0.15050000000E+03 0. -1.
</event>
<event>
 4    1  0.5640637E-004  0.6500000E+04  0.7818608E-02  0.7223770E-01
         52   -1    0    0    0    0  0.00000000000E+00  0.00000000000E+00  0.64930732323E+04  0.65000000000E+04  0.30000000000E+03 0. -1.
        -52   -1    0    0    0    0 -0.00000000000E+00 -0.00000000000E+00 -0.64930732323E+04  0.65000000000E+04  0.30000000000E+03 0. -1.
     100001    1    1    2    0    0 -0.12339796037E+04  0.13018398883E+04 -0.62457871396E+04  0.65000000000E+04  0.15050000000E+03 0. -1.
     100001    1    1    2    0    0  0.12339796037E+04 -0.13018398883E+04  0.62457871396E+04  0.65000000000E+04  0.15050000000E+03 0. -1.
</event>
<event>
 4    1  0.5640637E-004  0.6500000E+04  0.7818608E-02  0.7223770E-01
         52   -1    0    0    0    0  0.00000000000E+00  0.00000000000E+00  0.64930732323E+04  0.65000000000E+04  0.30000000000E+03 0.  1.
        -52   -1    0    0    0    0 -0.00000000000E+00 -0.00000000000E+00 -0.64930732323E+04  0.65000000000E+04  0.30000000000E+03 0. -1.
     100001    1    1    2    0    0 -0.23478695832E+04 -0.35085485908E+03 -0.60491122521E+04  0.65000000000E+04  0.15050000000E+03 0. -1.
     100001    1    1    2    0    0  0.23478695832E+04  0.35085485908E+03  0.60491122521E+04  0.65000000000E+04  0.15050000000E+03 0.  1.
</event>
<event>
 4    1  0.5640637E-004  0.6500000E+04  0.7818608E-02  0.7223770E-01
         52   -1    0    0    0    0  0.00000000000E+00  0.00000000000E+00  0.64930732323E+04  0.65000000000E+04  0.30000000000E+03 0. -1.
        -52   -1    0    0    0    0 -0.00000000000E+00 -0.00000000000E+00 -0.64930732323E+04  0.65000000000E+04  0.30000000000E+03 0.  1.
     100001    1    1    2    0    0  0.71396038221E+03  0.39397579781E+03 -0.64468902111E+04  0.65000000000E+04  0.15050000000E+03 0.  1.
     100001    1    1    2    0    0 -0.71396038221E+03 -0.39397579781E+03  0.64468902111E+04  0.65000000000E+04  0.15050000000E+03 0. -1.
</event>
<event>
 4    1  0.5747019E-004  0.6500000E+04  0.7818608E-02  0.7223770E-01
         52   -1    0    0    0    0  0.00000000000E+00  0.00000000000E+00  0.64930732323E+04  0.65000000000E+04  0.30000000000E+03 0.  1.
        -52   -1    0    0    0    0 -0.00000000000E+00 -0.00000000000E+00 -0.64930732323E+04  0.65000000000E+04  0.30000000000E+03 0. -1.
     100001    1    1    2    0    0 -0.26737839844E+03 -0.59983264260E+02  0.64924772275E+04  0.65000000000E+04  0.15050000000E+03 0.  1.
     100001    1    1    2    0    0  0.26737839844E+03  0.59983264260E+02 -0.64924772275E+04  0.65000000000E+04  0.15050000000E+03 0. -1.
</event>
<event>
 4    1  0.5640637E-004  0.6500000E+04  0.7818608E-02  0.7223770E-01
         52   -1    0    0    0    0  0.00000000000E+00  0.00000000000E+00  0.64930732323E+04  0.65000000000E+04  0.30000000000E+03 0.  1.
        -52   -1    0    0    0    0 -0.00000000000E+00 -0.00000000000E+00 -0.64930732323E+04  0.65000000000E+04  0.30000000000E+03 0. -1.
     100001    1    1    2    0    0  0.54474996573E+04 -0.24860029228E+02  0.35428066857E+04  0.65000000000E+04  0.15050000000E+03 0.  1.
     100001    1    1    2    0    0 -0.54474996573E+04  0.24860029228E+02 -0.35428066857E+04  0.65000000000E+04  0.15050000000E+03 0. -1.
</event>
<event>
 4    1  0.5640637E-004  0.6500000E+04  0.7818608E-02  0.7223770E-01
         52   -1    0    0    0    0  0.00000000000E+00  0.00000000000E+00  0.64930732323E+04  0.65000000000E+04  0.30000000000E+03 0.  1.
        -52   -1    0    0    0    0 -0.00000000000E+00 -0.00000000000E+00 -0.64930732323E+04  0.65000000000E+04  0.30000000000E+03 0. -1.
     100001    1    1    2    0    0  0.12744215916E+04  0.30514618999E+03  0.63647533463E+04  0.65000000000E+04  0.15050000000E+03 0.  1.
     100001    1    1    2    0    0 -0.12744215916E+04 -0.30514618999E+03 -0.63647533463E+04  0.65000000000E+04  0.15050000000E+03 0. -1.
</event>
<event>
 4    1  0.8885824E-004  0.6500000E+04  0.7818608E-02  0.7223770E-01
         52   -1    0    0    0    0  0.00000000000E+00  0.00000000000E+00  0.64930732323E+04  0.65000000000E+04  0.30000000000E+03 0. -1.
        -52   -1    0    0    0    0 -0.00000000000E+00 -0.00000000000E+00 -0.64930732323E+04  0.65000000000E+04  0.30000000000E+03 0. -1.
     100001    1    1    2    0    0 -0.11840659328E+03  0.49352121374E+02 -0.64969911495E+04  0.65000000000E+04  0.15050000000E+03 0. -1.
     100001    1    1    2    0    0  0.11840659328E+03 -0.49352121374E+02  0.64969911495E+04  0.65000000000E+04  0.15050000000E+03 0. -1.
</event>
<event>
 4    1  0.5640637E-004  0.6500000E+04  0.7818608E-02  0.7223770E-01
         52   -1    0    0    0    0  0.00000000000E+00  0.00000000000E+00  0.64930732323E+04  0.65000000000E+04  0.30000000000E+03 0. -1.
        -52   -1    0    0    0    0 -0.00000000000E+00 -0.00000000000E+00 -0.64930732323E+04  0.65000000000E+04  0.30000000000E+03 0.  1.
     100001    1    1    2    0    0 -0.73476511628E+03  0.38283393924E+04  0.51991621893E+04  0.65000000000E+04  0.15050000000E+03 0. -1.
     100001    1    1    2    0    0  0.73476511628E+03 -0.38283393924E+04 -0.51991621893E+04  0.65000000000E+04  0.15050000000E+03 0.  1.
</event>
<event>
 4    1  0.5640637E-004  0.6500000E+04  0.7818608E-02  0.7223770E-01
         52   -1    0    0    0    0  0.00000000000E+00  0.00000000000E+00  0.64930732323E+04  0.65000000000E+04  0.30000000000E+03 0.  1.
        -52   -1    0    0    0    0 -0.00000000000E+00 -0.00000000000E+00 -0.64930732323E+04  0.65000000000E+04  0.30000000000E+03 0. -1.
     100001    1    1    2    0    0 -0.27057484402E+03  0.77991355195E+02 -0.64921534449E+04  0.65000000000E+04  0.15050000000E+03 0. -1.
     100001    1    1    2    0    0  0.27057484402E+03 -0.77991355195E+02  0.64921534449E+04  0.65000000000E+04  0.15050000000E+03 0.  1.
</event>
<event>
 4    1  0.5640637E-004  0.6500000E+04  0.7818608E-02  0.7223770E-01
         52   -1    0    0    0    0  0.00000000000E+00  0.00000000000E+00  0.64930732323E+04  0.65000000000E+04  0.30000000000E+03 0. -1.
        -52   -1    0    0    0    0 -0.00000000000E+00 -0.00000000000E+00 -0.64930732323E+04  0.65000000000E+04  0.30000000000E+03 0.  1.
     100001    1    1    2    0    0 -0.91412684764E+03  0.36040187489E+03  0.64235373701E+04  0.65000000000E+04  0.15050000000E+03 0. -1.
     100001    1    1    2    0    0  0.91412684764E+03 -0.36040187489E+03 -0.64235373701E+04  0.65000000000E+04  0.15050000000E+03 0.  1.
</event>
<event>
 4    1  0.5640637E-004  0.6500000E+04  0.7818608E-02  0.7223770E-01
         52   -1    0    0    0    0  0.00000000000E+00  0.00000000000E+00  0.64930732323E+04  0.65000000000E+04  0.30000000000E+03 0.  1.
        -52   -1    0    0    0    0 -0.00000000000E+00 -0.00000000000E+00 -0.64930732323E+04  0.65000000000E+04  0.30000000000E+03 0. -1.
     100001    1    1    2    0    0  0.10819263625E+04  0.22495941608E+04  0.59996759252E+04  0.65000000000E+04  0.15050000000E+03 0.  1.
     100001    1    1    2    0    0 -0.10819263625E+04 -0.22495941608E+04 -0.59996759252E+04  0.65000000000E+04  0.15050000000E+03 0. -1.
</event>
<event>
 4    1  0.5640637E-004  0.6500000E+04  0.7818608E-02  0.7223770E-01
         52   -1    0    0    0    0  0.00000000000E+00  0.00000000000E+00  0.64930732323E+04  0.65000000000E+04  0.30000000000E+03 0.  1.
        -52   -1    0    0    0    0 -0.00000000000E+00 -0.00000000000E+00 -0.64930732323E+04  0.65000000000E+04  0.30000000000E+03 0. -1.
     100001    1    1    2    0    0 -0.32997742241E+04 -0.54495876542E+04  0.12809505137E+04  0.65000000000E+04  0.15050000000E+03 0. -1.
     100001    1    1    2    0    0  0.32997742241E+04  0.54495876542E+04 -0.12809505137E+04  0.65000000000E+04  0.15050000000E+03 0.  1.
</event>
<event>
 4    1  0.5640637E-004  0.6500000E+04  0.7818608E-02  0.7223770E-01
         52   -1    0    0    0    0  0.00000000000E+00  0.00000000000E+00  0.64930732323E+04  0.65000000000E+04  0.30000000000E+03 0. -1.
        -52   -1    0    0    0    0 -0.00000000000E+00 -0.00000000000E+00 -0.64930732323E+04  0.65000000000E+04  0.30000000000E+03 0.  1.
     100001    1    1    2    0    0 -0.25925613967E+04 -0.34820192505E+04 -0.48354438362E+04  0.65000000000E+04  0.15050000000E+03 0.  1.
     100001    1    1    2    0    0  0.25925613967E+04  0.34820192505E+04  0.48354438362E+04  0.65000000000E+04  0.15050000000E+03 0. -1.
</event>
<event>
 4    1  0.5640637E-004  0.6500000E+04  0.7818608E-02  0.7223770E-01
         52   -1    0    0    0    0  0.00000000000E+00  0.00000000000E+00  0.64930732323E+04  0.65000000000E+04  0.30000000000E+03 0. -1.
        -52   -1    0    0    0    0 -0.00000000000E+00 -0.00000000000E+00 -0.64930732323E+04  0.65000000000E+04  0.30000000000E+03 0.  1.
     100001    1    1    2    0    0 -0.38370151317E+04 -0.16697725261E+04  0.49715716167E+04  0.65000000000E+04  0.15050000000E+03 0. -1.
     100001    1    1    2    0    0  0.38370151317E+04  0.16697725261E+04 -0.49715716167E+04  0.65000000000E+04  0.15050000000E+03 0.  1.
</event>
<event>
 4    1  0.5640637E-004  0.6500000E+04  0.7818608E-02  0.7223770E-01
         52   -1    0    0    0    0  0.00000000000E+00  0.00000000000E+00  0.64930732323E+04  0.65000000000E+04  0.30000000000E+03 0.  1.
        -52   -1    0    0    0    0 -0.00000000000E+00 -0.00000000000E+00 -0.64930732323E+04  0.65000000000E+04  0.30000000000E+03 0. -1.
     100001    1    1    2    0    0  0.24430559932E+03 -0.37855174945E+04 -0.52761275404E+04  0.65000000000E+04  0.15050000000E+03 0. -1.
     100001    1    1    2    0    0 -0.24430559932E+03  0.37855174945E+04  0.52761275404E+04  0.65000000000E+04  0.15050000000E+03 0.  1.
</event>
<event>
 4    1  0.5640637E-004  0.6500000E+04  0.7818608E-02  0.7223770E-01
         52   -1    0    0    0    0  0.00000000000E+00  0.00000000000E+00  0.64930732323E+04  0.65000000000E+04  0.30000000000E+03 0.  1.
        -52   -1    0    0    0    0 -0.00000000000E+00 -0.00000000000E+00 -0.64930732323E+04  0.65000000000E+04  0.30000000000E+03 0. -1.
     100001    1    1    2    0    0 -0.50559092838E+03  0.22588472611E+04 -0.60720125670E+04  0.65000000000E+04  0.15050000000E+03 0. -1.
     100001    1    1    2    0    0  0.50559092838E+03 -0.22588472611E+04  0.60720125670E+04  0.65000000000E+04  0.15050000000E+03 0.  1.
</event>
<event>
 4    1  0.5640637E-004  0.6500000E+04  0.7818608E-02  0.7223770E-01
         52   -1    0    0    0    0  0.00000000000E+00  0.00000000000E+00  0.64930732323E+04  0.65000000000E+04  0.30000000000E+03 0.  1.
        -52   -1    0    0    0    0 -0.00000000000E+00 -0.00000000000E+00 -0.64930732323E+04  0.65000000000E+04  0.30000000000E+03 0. -1.
     100001    1    1    2    0    0 -0.27338622911E+04  0.17086067003E+04 -0.56421635803E+04  0.65000000000E+04  0.15050000000E+03 0. -1.
     100001    1    1    2    0    0  0.27338622911E+04 -0.17086067003E+04  0.56421635803E+04  0.65000000000E+04  0.15050000000E+03 0.  1.
</event>
<event>
 4    1  0.5640637E-004  0.6500000E+04  0.7818608E-02  0.7223770E-01
         52   -1    0    0    0    0  0.00000000000E+00  0.00000000000E+00  0.64930732323E+04  0.65000000000E+04  0.30000000000E+03 0. -1.
        -52   -1    0    0    0    0 -0.00000000000E+00 -0.00000000000E+00 -0.64930732323E+04  0.65000000000E+04  0.30000000000E+03 0.  1.
     100001    1    1    2    0    0 -0.45820808460E+03  0.63697243820E+04  0.12016681730E+04  0.65000000000E+04  0.15050000000E+03 0. -1.
     100001    1    1    2    0    0  0.45820808460E+03 -0.63697243820E+04 -0.12016681730E+04  0.65000000000E+04  0.15050000000E+03 0.  1.
</event>
<event>
 4    1  0.5640637E-004  0.6500000E+04  0.7818608E-02  0.7223770E-01
         52   -1    0    0    0    0  0.00000000000E+00  0.00000000000E+00  0.64930732323E+04  0.65000000000E+04  0.30000000000E+03 0.  1.
        -52   -1    0    0    0    0 -0.00000000000E+00 -0.00000000000E+00 -0.64930732323E+04  0.65000000000E+04  0.30000000000E+03 0. -1.
     100001    1    1    2    0    0 -0.22667850581E+04  0.44075051732E+04  0.42027292797E+04  0.65000000000E+04  0.15050000000E+03 0.  1.
     100001    1    1    2    0    0  0.22667850581E+04 -0.44075051732E+04 -0.42027292797E+04  0.65000000000E+04  0.15050000000E+03 0. -1.
</event>
<event>
 4    1  0.6595108E-004  0.6500000E+04  0.7818608E-02  0.7223770E-01
         52   -1    0    0    0    0  0.00000000000E+00  0.00000000000E+00  0.64930732323E+04  0.65000000000E+04  0.30000000000E+03 0. -1.
        -52   -1    0    0    0    0 -0.00000000000E+00 -0.00000000000E+00 -0.64930732323E+04  0.65000000000E+04  0.30000000000E+03 0. -1.
     100001    1    1    2    0    0 -0.11607677307E+03 -0.12847930947E+03  0.64959501999E+04  0.65000000000E+04  0.15050000000E+03 0. -1.
     100001    1    1    2    0    0  0.11607677307E+03  0.12847930947E+03 -0.64959501999E+04  0.65000000000E+04  0.15050000000E+03 0. -1.
</event>
<event>
 4    1  0.5640637E-004  0.6500000E+04  0.7818608E-02  0.7223770E-01
         52   -1    0    0    0    0  0.00000000000E+00  0.00000000000E+00  0.64930732323E+04  0.65000000000E+04  0.30000000000E+03 0.  1.
        -52   -1    0    0    0    0 -0.00000000000E+00 -0.00000000000E+00 -0.64930732323E+04  0.65000000000E+04  0.30000000000E+03 0.  1.
     100001    1    1    2    0    0  0.36860830786E+03  0.11036003025E+04  0.63932420600E+04  0.65000000000E+04  0.15050000000E+03 0.  1.
     100001    1    1    2    0    0 -0.36860830786E+03 -0.11036003025E+04 -0.63932420600E+04  0.65000000000E+04  0.15050000000E+03 0.  1.
</event>
<event>
 4    1  0.5640637E-004  0.6500000E+04  0.7818608E-02  0.7223770E-01
         52   -1    0    0    0    0  0.00000000000E+00  0.00000000000E+00  0.64930732323E+04  0.65000000000E+04  0.30000000000E+03 0. -1.
        -52   -1    0    0    0    0 -0.00000000000E+00 -0.00000000000E+00 -0.64930732323E+04  0.65000000000E+04  0.30000000000E+03 0.  1.
     100001    1    1    2    0    0  0.11847734558E+03  0.32069852869E+04 -0.56505361019E+04  0.65000000000E+04  0.15050000000E+03 0.  1.
     100001    1    1    2    0    0 -0.11847734558E+03 -0.32069852869E+04  0.56505361019E+04  0.65000000000E+04  0.15050000000E+03 0. -1.
</event>
<event>
 4    1  0.5640637E-004  0.6500000E+04  0.7818608E-02  0.7223770E-01
         52   -1    0    0    0    0  0.00000000000E+00  0.00000000000E+00  0.64930732323E+04  0.65000000000E+04  0.30000000000E+03 0.  1.
        -52   -1    0    0    0    0 -0.00000000000E+00 -0.00000000000E+00 -0.64930732323E+04  0.65000000000E+04  0.30000000000E+03 0. -1.
     100001    1    1    2    0    0 -0.22507933824E+03 -0.18952995582E+03 -0.64915920572E+04  0.65000000000E+04  0.15050000000E+03 0. -1.
     100001    1    1    2    0    0  0.22507933824E+03  0.18952995582E+03  0.64915920572E+04  0.65000000000E+04  0.15050000000E+03 0.  1.
</event>
<event>
 4    1  0.5640637E-004  0.6500000E+04  0.7818608E-02  0.7223770E-01
         52   -1    0    0    0    0  0.00000000000E+00  0.00000000000E+00  0.64930732323E+04  0.65000000000E+04  0.30000000000E+03 0.  1.
        -52   -1    0    0    0    0 -0.00000000000E+00 -0.00000000000E+00 -0.64930732323E+04  0.65000000000E+04  0.30000000000E+03 0. -1.
     100001    1    1    2    0    0  0.62663563577E+04  0.17137346238E+04  0.15245126423E+03  0.65000000000E+04  0.15050000000E+03 0. -1.
     100001    1    1    2    0    0 -0.62663563577E+04 -0.17137346238E+04 -0.15245126423E+03  0.65000000000E+04  0.15050000000E+03 0.  1.
</event>
<event>
 4    1  0.5640637E-004  0.6500000E+04  0.7818608E-02  0.7223770E-01
         52   -1    0    0    0    0  0.00000000000E+00  0.00000000000E+00  0.64930732323E+04  0.65000000000E+04  0.30000000000E+03 0.  1.
        -52   -1    0    0    0    0 -0.00000000000E+00 -0.00000000000E+00 -0.64930732323E+04  0.65000000000E+04  0.30000000000E+03 0. -1.
     100001    1    1    2    0    0 -0.40114258847E+03 -0.50045931237E+04 -0.41255886901E+04  0.65000000000E+04  0.15050000000E+03 0. -1.
     100001    1    1    2    0    0  0.40114258847E+03  0.50045931237E+04  0.41255886901E+04  0.65000000000E+04  0.15050000000E+03 0.  1.
</event>
<event>
 4    1  0.5640637E-004  0.6500000E+04  0.7818608E-02  0.7223770E-01
         52   -1    0    0    0    0  0.00000000000E+00  0.00000000000E+00  0.64930732323E+04  0.65000000000E+04  0.30000000000E+03 0. -1.
        -52   -1    0    0    0    0 -0.00000000000E+00 -0.00000000000E+00 -0.64930732323E+04  0.65000000000E+04  0.30000000000E+03 0.  1.
     100001    1    1    2    0    0  0.74441626737E+03  0.16530566946E+03 -0.64533610008E+04  0.65000000000E+04  0.15050000000E+03 0.  1.
     100001    1    1    2    0    0 -0.74441626737E+03 -0.16530566946E+03  0.64533610008E+04  0.65000000000E+04  0.15050000000E+03 0. -1.
</event>
<event>
 4    1  0.5640637E-004  0.6500000E+04  0.7818608E-02  0.7223770E-01
         52   -1    0    0    0    0  0.00000000000E+00  0.00000000000E+00  0.64930732323E+04  0.65000000000E+04  0.30000000000E+03 0. -1.
        -52   -1    0    0    0    0 -0.00000000000E+00 -0.00000000000E+00 -0.64930732323E+04  0.65000000000E+04  0.30000000000E+03 0.  1.
     100001    1    1    2    0    0  0.39064186247E+04  0.15986827242E+04  0.49407951613E+04  0.65000000000E+04  0.15050000000E+03 0. -1.
     100001    1    1    2    0    0 -0.39064186247E+04 -0.15986827242E+04 -0.49407951613E+04  0.65000000000E+04  0.15050000000E+03 0.  1.
</event>
<event>
 4    1  0.5640637E-004  0.6500000E+04  0.7818608E-02  0.7223770E-01
         52   -1    0    0    0    0  0.00000000000E+00  0.00000000000E+00  0.64930732323E+04  0.65000000000E+04  0.30000000000E+03 0. -1.
        -52   -1    0    0    0    0 -0.00000000000E+00 -0.00000000000E+00 -0.64930732323E+04  0.65000000000E+04  0.30000000000E+03 0.  1.
     100001    1    1    2    0    0 -0.13814341980E+04 -0.21126008509E+04  0.59879802063E+04  0.65000000000E+04  0.15050000000E+03 0. -1.
     100001    1    1    2    0    0  0.13814341980E+04  0.21126008509E+04 -0.59879802063E+04  0.65000000000E+04  0.15050000000E+03 0.  1.
</event>
<event>
 4    1  0.5640637E-004  0.6500000E+04  0.7818608E-02  0.7223770E-01
         52   -1    0    0    0    0  0.00000000000E+00  0.00000000000E+00  0.64930732323E+04  0.65000000000E+04  0.30000000000E+03 0.  1.
        -52   -1    0    0    0    0 -0.00000000000E+00 -0.00000000000E+00 -0.64930732323E+04  0.65000000000E+04  0.30000000000E+03 0.  1.
     100001    1    1    2    0    0  0.33860236942E+03  0.19441622057E+03 -0.64865168248E+04  0.65000000000E+04  0.15050000000E+03 0.  1.
     100001    1    1    2    0    0 -0.33860236942E+03 -0.19441622057E+03  0.64865168248E+04  0.65000000000E+04  0.15050000000E+03 0.  1.
</event>
<event>
 4    1  0.5640637E-004  0.6500000E+04  0.7818608E-02  0.7223770E-01
         52   -1    0    0    0    0  0.00000000000E+00  0.00000000000E+00  0.64930732323E+04  0.65000000000E+04  0.30000000000E+03 0. -1.
        -52   -1    0    0    0    0 -0.00000000000E+00 -0.00000000000E+00 -0.64930732323E+04  0.65000000000E+04  0.30000000000E+03 0.  1.
     100001    1    1    2    0    0  0.80122089284E+03 -0.20436994924E+04 -0.61162641552E+04  0.65000000000E+04  0.15050000000E+03 0.  1.
     100001    1    1    2    0    0 -0.80122089284E+03  0.20436994924E+04  0.61162641552E+04  0.65000000000E+04  0.15050000000E+03 0. -1.
</event>
<event>
 4    1  0.5640637E-004  0.6500000E+04  0.7818608E-02  0.7223770E-01
         52   -1    0    0    0    0  0.00000000000E+00  0.00000000000E+00  0.64930732323E+04  0.65000000000E+04  0.30000000000E+03 0. -1.
        -52   -1    0    0    0    0 -0.00000000000E+00 -0.00000000000E+00 -0.64930732323E+04  0.65000000000E+04  0.30000000000E+03 0.  1.
     100001    1    1    2    0    0 -0.11254577289E+04 -0.15879798842E+03 -0.63980839202E+04  0.65000000000E+04  0.15050000000E+03 0.  1.
     100001    1    1    2    0    0  0.11254577289E+04  0.15879798842E+03  0.63980839202E+04  0.65000000000E+04  0.15050000000E+03 0. -1.
</event>
<event>
 4    1  0.5640637E-004  0.6500000E+04  0.7818608E-02  0.7223770E-01
         52   -1    0    0    0    0  0.00000000000E+00  0.00000000000E+00  0.64930732323E+04  0.65000000000E+04  0.30000000000E+03 0.  1.
        -52   -1    0    0    0    0 -0.00000000000E+00 -0.00000000000E+00 -0.64930732323E+04  0.65000000000E+04  0.30000000000E+03 0. -1.
     100001    1    1    2    0    0  0.19123497666E+04  0.14112621984E+04 -0.60480250601E+04  0.65000000000E+04  0.15050000000E+03 0. -1.
     100001    1    1    2    0    0 -0.19123497666E+04 -0.14112621984E+04  0.60480250601E+04  0.65000000000E+04  0.15050000000E+03 0.  1.
</event>
<event>
 4    1  0.5640637E-004  0.6500000E+04  0.7818608E-02  0.7223770E-01
         52   -1    0    0    0    0  0.00000000000E+00  0.00000000000E+00  0.64930732323E+04  0.65000000000E+04  0.30000000000E+03 0. -1.
        -52   -1    0    0    0    0 -0.00000000000E+00 -0.00000000000E+00 -0.64930732323E+04  0.65000000000E+04  0.30000000000E+03 0.  1.
     100001    1    1    2    0    0 -0.12689175166E+02 -0.60718274976E+03  0.64698159049E+04  0.65000000000E+04  0.15050000000E+03 0. -1.
     100001    1    1    2    0    0  0.12689175166E+02  0.60718274976E+03 -0.64698159049E+04  0.65000000000E+04  0.15050000000E+03 0.  1.
</event>
<event>
 4    1  0.5640637E-004  0.6500000E+04  0.7818608E-02  0.7223770E-01
         52   -1    0    0    0    0  0.00000000000E+00  0.00000000000E+00  0.64930732323E+04  0.65000000000E+04  0.30000000000E+03 0. -1.
        -52   -1    0    0    0    0 -0.00000000000E+00 -0.00000000000E+00 -0.64930732323E+04  0.65000000000E+04  0.30000000000E+03 0.  1.
     100001    1    1    2    0    0  0.61798464368E+03 -0.56559786508E+04 -0.31393232124E+04  0.65000000000E+04  0.15050000000E+03 0.  1.
     100001    1    1    2    0    0 -0.61798464368E+03  0.56559786508E+04  0.31393232124E+04  0.65000000000E+04  0.15050000000E+03 0. -1.
</event>
<event>
 4    1  0.5640637E-004  0.6500000E+04  0.7818608E-02  0.7223770E-01
         52   -1    0    0    0    0  0.00000000000E+00  0.00000000000E+00  0.64930732323E+04  0.65000000000E+04  0.30000000000E+03 0.  1.
        -52   -1    0    0    0    0 -0.00000000000E+00 -0.00000000000E+00 -0.64930732323E+04  0.65000000000E+04  0.30000000000E+03 0. -1.
     100001    1    1    2    0    0 -0.61264612188E+03 -0.25480928763E+02  0.64692631112E+04  0.65000000000E+04  0.15050000000E+03 0.  1.
     100001    1    1    2    0    0  0.61264612188E+03  0.25480928763E+02 -0.64692631112E+04  0.65000000000E+04  0.15050000000E+03 0. -1.
</event>
<event>
 4    1  0.5640637E-004  0.6500000E+04  0.7818608E-02  0.7223770E-01
         52   -1    0    0    0    0  0.00000000000E+00  0.00000000000E+00  0.64930732323E+04  0.65000000000E+04  0.30000000000E+03 0. -1.
        -52   -1    0    0    0    0 -0.00000000000E+00 -0.00000000000E+00 -0.64930732323E+04  0.65000000000E+04  0.30000000000E+03 0. -1.
     100001    1    1    2    0    0 -0.14598931365E+03  0.52134817257E+02 -0.64964081484E+04  0.65000000000E+04  0.15050000000E+03 0. -1.
     100001    1    1    2    0    0  0.14598931365E+03 -0.52134817257E+02  0.64964081484E+04  0.65000000000E+04  0.15050000000E+03 0. -1.
</event>
<event>
 4    1  0.5640637E-004  0.6500000E+04  0.7818608E-02  0.7223770E-01
         52   -1    0    0    0    0  0.00000000000E+00  0.00000000000E+00  0.64930732323E+04  0.65000000000E+04  0.30000000000E+03 0. -1.
        -52   -1    0    0    0    0 -0.00000000000E+00 -0.00000000000E+00 -0.64930732323E+04  0.65000000000E+04  0.30000000000E+03 0.  1.
     100001    1    1    2    0    0  0.45323552206E+04 -0.11397700125E+04  0.45150891711E+04  0.65000000000E+04  0.15050000000E+03 0. -1.
     100001    1    1    2    0    0 -0.45323552206E+04  0.11397700125E+04 -0.45150891711E+04  0.65000000000E+04  0.15050000000E+03 0.  1.
</event>
<event>
 4    1  0.5640637E-004  0.6500000E+04  0.7818608E-02  0.7223770E-01
         52   -1    0    0    0    0  0.00000000000E+00  0.00000000000E+00  0.64930732323E+04  0.65000000000E+04  0.30000000000E+03 0.  1.
        -52   -1    0    0    0    0 -0.00000000000E+00 -0.00000000000E+00 -0.64930732323E+04  0.65000000000E+04  0.30000000000E+03 0. -1.
     100001    1    1    2    0    0 -0.48353023683E+04 -0.15335551599E+04 -0.40614540905E+04  0.65000000000E+04  0.15050000000E+03 0. -1.
     100001    1    1    2    0    0  0.48353023683E+04  0.15335551599E+04  0.40614540905E+04  0.65000000000E+04  0.15050000000E+03 0.  1.
</event>
<event>
 4    1  0.5640637E-004  0.6500000E+04  0.7818608E-02  0.7223770E-01
         52   -1    0    0    0    0  0.00000000000E+00  0.00000000000E+00  0.64930732323E+04  0.65000000000E+04  0.30000000000E+03 0.  1.
        -52   -1    0    0    0    0 -0.00000000000E+00 -0.00000000000E+00 -0.64930732323E+04  0.65000000000E+04  0.30000000000E+03 0. -1.
     100001    1    1    2    0    0  0.15667254210E+03  0.17925116336E+03  0.64938950165E+04  0.65000000000E+04  0.15050000000E+03 0.  1.
     100001    1    1    2    0    0 -0.15667254210E+03 -0.17925116336E+03 -0.64938950165E+04  0.65000000000E+04  0.15050000000E+03 0. -1.
</event>
<event>
 4    1  0.5640637E-004  0.6500000E+04  0.7818608E-02  0.7223770E-01
         52   -1    0    0    0    0  0.00000000000E+00  0.00000000000E+00  0.64930732323E+04  0.65000000000E+04  0.30000000000E+03 0.  1.
        -52   -1    0    0    0    0 -0.00000000000E+00 -0.00000000000E+00 -0.64930732323E+04  0.65000000000E+04  0.30000000000E+03 0. -1.
     100001    1    1    2    0    0 -0.12007965607E+04  0.59824234914E+03  0.63582657590E+04  0.65000000000E+04  0.15050000000E+03 0.  1.
     100001    1    1    2    0    0  0.12007965607E+04 -0.59824234914E+03 -0.63582657590E+04  0.65000000000E+04  0.15050000000E+03 0. -1.
</event>
<event>
 4    1  0.5640637E-004  0.6500000E+04  0.7818608E-02  0.7223770E-01
         52   -1    0    0    0    0  0.00000000000E+00  0.00000000000E+00  0.64930732323E+04  0.65000000000E+04  0.30000000000E+03 0. -1.
        -52   -1    0    0    0    0 -0.00000000000E+00 -0.00000000000E+00 -0.64930732323E+04  0.65000000000E+04  0.30000000000E+03 0.  1.
     100001    1    1    2    0    0  0.36234819015E+04  0.21323548854E+04  0.49548755082E+04  0.65000000000E+04  0.15050000000E+03 0. -1.
     100001    1    1    2    0    0 -0.36234819015E+04 -0.21323548854E+04 -0.49548755082E+04  0.65000000000E+04  0.15050000000E+03 0.  1.
</event>
<event>
 4    1  0.5640637E-004  0.6500000E+04  0.7818608E-02  0.7223770E-01
         52   -1    0    0    0    0  0.00000000000E+00  0.00000000000E+00  0.64930732323E+04  0.65000000000E+04  0.30000000000E+03 0.  1.
        -52   -1    0    0    0    0 -0.00000000000E+00 -0.00000000000E+00 -0.64930732323E+04  0.65000000000E+04  0.30000000000E+03 0. -1.
     100001    1    1    2    0    0  0.74958528020E+03 -0.11521905756E+04  0.63512147291E+04  0.65000000000E+04  0.15050000000E+03 0.  1.
     100001    1    1    2    0    0 -0.74958528020E+03  0.11521905756E+04 -0.63512147291E+04  0.65000000000E+04  0.15050000000E+03 0. -1.
</event>
<event>
 4    1  0.5640637E-004  0.6500000E+04  0.7818608E-02  0.7223770E-01
         52   -1    0    0    0    0  0.00000000000E+00  0.00000000000E+00  0.64930732323E+04  0.65000000000E+04  0.30000000000E+03 0. -1.
        -52   -1    0    0    0    0 -0.00000000000E+00 -0.00000000000E+00 -0.64930732323E+04  0.65000000000E+04  0.30000000000E+03 0.  1.
     100001    1    1    2    0    0  0.11767295166E+03  0.82651864015E+03 -0.64444060831E+04  0.65000000000E+04  0.15050000000E+03 0.  1.
     100001    1    1    2    0    0 -0.11767295166E+03 -0.82651864015E+03  0.64444060831E+04  0.65000000000E+04  0.15050000000E+03 0. -1.
</event>
<event>
 4    1  0.5640637E-004  0.6500000E+04  0.7818608E-02  0.7223770E-01
         52   -1    0    0    0    0  0.00000000000E+00  0.00000000000E+00  0.64930732323E+04  0.65000000000E+04  0.30000000000E+03 0. -1.
        -52   -1    0    0    0    0 -0.00000000000E+00 -0.00000000000E+00 -0.64930732323E+04  0.65000000000E+04  0.30000000000E+03 0.  1.
     100001    1    1    2    0    0  0.42592291413E+03  0.92721370565E+03 -0.64176486477E+04  0.65000000000E+04  0.15050000000E+03 0.  1.
     100001    1    1    2    0    0 -0.42592291413E+03 -0.92721370565E+03  0.64176486477E+04  0.65000000000E+04  0.15050000000E+03 0. -1.
</event>
<event>
 4    1  0.5640637E-004  0.6500000E+04  0.7818608E-02  0.7223770E-01
         52   -1    0    0    0    0  0.00000000000E+00  0.00000000000E+00  0.64930732323E+04  0.65000000000E+04  0.30000000000E+03 0. -1.
        -52   -1    0    0    0    0 -0.00000000000E+00 -0.00000000000E+00 -0.64930732323E+04  0.65000000000E+04  0.30000000000E+03 0.  1.
     100001    1    1    2    0    0  0.10406936473E+04 -0.32936793167E+03 -0.64059209524E+04  0.65000000000E+04  0.15050000000E+03 0.  1.
     100001    1    1    2    0    0 -0.10406936473E+04  0.32936793167E+03  0.64059209524E+04  0.65000000000E+04  0.15050000000E+03 0. -1.
</event>
<event>
 4    1  0.5640637E-004  0.6500000E+04  0.7818608E-02  0.7223770E-01
         52   -1    0    0    0    0  0.00000000000E+00  0.00000000000E+00  0.64930732323E+04  0.65000000000E+04  0.30000000000E+03 0. -1.
        -52   -1    0    0    0    0 -0.00000000000E+00 -0.00000000000E+00 -0.64930732323E+04  0.65000000000E+04  0.30000000000E+03 0.  1.
     100001    1    1    2    0    0  0.33069896745E+03 -0.52957017433E+04 -0.37514705102E+04  0.65000000000E+04  0.15050000000E+03 0.  1.
     100001    1    1    2    0    0 -0.33069896745E+03  0.52957017433E+04  0.37514705102E+04  0.65000000000E+04  0.15050000000E+03 0. -1.
</event>
<event>
 4    1  0.5640637E-004  0.6500000E+04  0.7818608E-02  0.7223770E-01
         52   -1    0    0    0    0  0.00000000000E+00  0.00000000000E+00  0.64930732323E+04  0.65000000000E+04  0.30000000000E+03 0. -1.
        -52   -1    0    0    0    0 -0.00000000000E+00 -0.00000000000E+00 -0.64930732323E+04  0.65000000000E+04  0.30000000000E+03 0.  1.
     100001    1    1    2    0    0 -0.24046953834E+04  0.14770525857E+04 -0.58534695286E+04  0.65000000000E+04  0.15050000000E+03 0.  1.
     100001    1    1    2    0    0  0.24046953834E+04 -0.14770525857E+04  0.58534695286E+04  0.65000000000E+04  0.15050000000E+03 0. -1.
</event>
<event>
 4    1  0.5640637E-004  0.6500000E+04  0.7818608E-02  0.7223770E-01
         52   -1    0    0    0    0  0.00000000000E+00  0.00000000000E+00  0.64930732323E+04  0.65000000000E+04  0.30000000000E+03 0. -1.
        -52   -1    0    0    0    0 -0.00000000000E+00 -0.00000000000E+00 -0.64930732323E+04  0.65000000000E+04  0.30000000000E+03 0.  1.
     100001    1    1    2    0    0 -0.12513204126E+04 -0.52506945903E+02 -0.63764245464E+04  0.65000000000E+04  0.15050000000E+03 0.  1.
     100001    1    1    2    0    0  0.12513204126E+04  0.52506945903E+02  0.63764245464E+04  0.65000000000E+04  0.15050000000E+03 0. -1.
</event>
<event>
 4    1  0.9051679E-004  0.6500000E+04  0.7818608E-02  0.7223770E-01
         52   -1    0    0    0    0  0.00000000000E+00  0.00000000000E+00  0.64930732323E+04  0.65000000000E+04  0.30000000000E+03 0. -1.
        -52   -1    0    0    0    0 -0.00000000000E+00 -0.00000000000E+00 -0.64930732323E+04  0.65000000000E+04  0.30000000000E+03 0. -1.
     100001    1    1    2    0    0  0.99979651183E+02 -0.52437463186E+02 -0.64972766704E+04  0.65000000000E+04  0.15050000000E+03 0. -1.
     100001    1    1    2    0    0 -0.99979651183E+02  0.52437463186E+02  0.64972766704E+04  0.65000000000E+04  0.15050000000E+03 0. -1.
</event>
<event>
 4    1  0.5640637E-004  0.6500000E+04  0.7818608E-02  0.7223770E-01
         52   -1    0    0    0    0  0.00000000000E+00  0.00000000000E+00  0.64930732323E+04  0.65000000000E+04  0.30000000000E+03 0.  1.
        -52   -1    0    0    0    0 -0.00000000000E+00 -0.00000000000E+00 -0.64930732323E+04  0.65000000000E+04  0.30000000000E+03 0. -1.
     100001    1    1    2    0    0  0.14345102265E+04 -0.10564923224E+04  0.62492682878E+04  0.65000000000E+04  0.15050000000E+03 0.  1.
     100001    1    1    2    0    0 -0.14345102265E+04  0.10564923224E+04 -0.62492682878E+04  0.65000000000E+04  0.15050000000E+03 0. -1.
</event>
<event>
 4    1  0.5640637E-004  0.6500000E+04  0.7818608E-02  0.7223770E-01
         52   -1    0    0    0    0  0.00000000000E+00  0.00000000000E+00  0.64930732323E+04  0.65000000000E+04  0.30000000000E+03 0. -1.
        -52   -1    0    0    0    0 -0.00000000000E+00 -0.00000000000E+00 -0.64930732323E+04  0.65000000000E+04  0.30000000000E+03 0.  1.
     100001    1    1    2    0    0 -0.21362113270E+04 -0.53386510591E+04  0.30270044244E+04  0.65000000000E+04  0.15050000000E+03 0. -1.
     100001    1    1    2    0    0  0.21362113270E+04  0.53386510591E+04 -0.30270044244E+04  0.65000000000E+04  0.15050000000E+03 0.  1.
</event>
<event>
 4    1  0.5640637E-004  0.6500000E+04  0.7818608E-02  0.7223770E-01
         52   -1    0    0    0    0  0.00000000000E+00  0.00000000000E+00  0.64930732323E+04  0.65000000000E+04  0.30000000000E+03 0.  1.
        -52   -1    0    0    0    0 -0.00000000000E+00 -0.00000000000E+00 -0.64930732323E+04  0.65000000000E+04  0.30000000000E+03 0. -1.
     100001    1    1    2    0    0 -0.23813372797E+04  0.47359798254E+04  0.37586004847E+04  0.65000000000E+04  0.15050000000E+03 0.  1.
     100001    1    1    2    0    0  0.23813372797E+04 -0.47359798254E+04 -0.37586004847E+04  0.65000000000E+04  0.15050000000E+03 0. -1.
</event>
<event>
 4    1  0.5640637E-004  0.6500000E+04  0.7818608E-02  0.7223770E-01
         52   -1    0    0    0    0  0.00000000000E+00  0.00000000000E+00  0.64930732323E+04  0.65000000000E+04  0.30000000000E+03 0. -1.
        -52   -1    0    0    0    0 -0.00000000000E+00 -0.00000000000E+00 -0.64930732323E+04  0.65000000000E+04  0.30000000000E+03 0.  1.
     100001    1    1    2    0    0  0.29153077579E+04  0.19620018264E+04  0.54661576322E+04  0.65000000000E+04  0.15050000000E+03 0. -1.
     100001    1    1    2    0    0 -0.29153077579E+04 -0.19620018264E+04 -0.54661576322E+04  0.65000000000E+04  0.15050000000E+03 0.  1.
</event>
<event>
 4    1  0.5952126E-004  0.6500000E+04  0.7818608E-02  0.7223770E-01
         52   -1    0    0    0    0  0.00000000000E+00  0.00000000000E+00  0.64930732323E+04  0.65000000000E+04  0.30000000000E+03 0. -1.
        -52   -1    0    0    0    0 -0.00000000000E+00 -0.00000000000E+00 -0.64930732323E+04  0.65000000000E+04  0.30000000000E+03 0. -1.
     100001    1    1    2    0    0 -0.25514568706E+03 -0.63758910125E+02  0.64929334842E+04  0.65000000000E+04  0.15050000000E+03 0. -1.
     100001    1    1    2    0    0  0.25514568706E+03  0.63758910125E+02 -0.64929334842E+04  0.65000000000E+04  0.15050000000E+03 0. -1.
</event>
<event>
 4    1  0.5640637E-004  0.6500000E+04  0.7818608E-02  0.7223770E-01
         52   -1    0    0    0    0  0.00000000000E+00  0.00000000000E+00  0.64930732323E+04  0.65000000000E+04  0.30000000000E+03 0. -1.
        -52   -1    0    0    0    0 -0.00000000000E+00 -0.00000000000E+00 -0.64930732323E+04  0.65000000000E+04  0.30000000000E+03 0.  1.
     100001    1    1    2    0    0 -0.45860724095E+03 -0.20076967272E+04  0.61632931944E+04  0.65000000000E+04  0.15050000000E+03 0. -1.
     100001    1    1    2    0    0  0.45860724095E+03  0.20076967272E+04 -0.61632931944E+04  0.65000000000E+04  0.15050000000E+03 0.  1.
</event>
<event>
 4    1  0.5640637E-004  0.6500000E+04  0.7818608E-02  0.7223770E-01
         52   -1    0    0    0    0  0.00000000000E+00  0.00000000000E+00  0.64930732323E+04  0.65000000000E+04  0.30000000000E+03 0.  1.
        -52   -1    0    0    0    0 -0.00000000000E+00 -0.00000000000E+00 -0.64930732323E+04  0.65000000000E+04  0.30000000000E+03 0.  1.
     100001    1    1    2    0    0 -0.14249582298E+03  0.31024493063E+03  0.64892829167E+04  0.65000000000E+04  0.15050000000E+03 0.  1.
     100001    1    1    2    0    0  0.14249582298E+03 -0.31024493063E+03 -0.64892829167E+04  0.65000000000E+04  0.15050000000E+03 0.  1.
</event>
<event>
 4    1  0.5640637E-004  0.6500000E+04  0.7818608E-02  0.7223770E-01
         52   -1    0    0    0    0  0.00000000000E+00  0.00000000000E+00  0.64930732323E+04  0.65000000000E+04  0.30000000000E+03 0.  1.
        -52   -1    0    0    0    0 -0.00000000000E+00 -0.00000000000E+00 -0.64930732323E+04  0.65000000000E+04  0.30000000000E+03 0. -1.
     100001    1    1    2    0    0 -0.15731003925E+04  0.49422920862E+04 -0.39149015109E+04  0.65000000000E+04  0.15050000000E+03 0. -1.
     100001    1    1    2    0    0  0.15731003925E+04 -0.49422920862E+04  0.39149015109E+04  0.65000000000E+04  0.15050000000E+03 0.  1.
</event>
<event>
 4    1  0.5640637E-004  0.6500000E+04  0.7818608E-02  0.7223770E-01
         52   -1    0    0    0    0  0.00000000000E+00  0.00000000000E+00  0.64930732323E+04  0.65000000000E+04  0.30000000000E+03 0.  1.
        -52   -1    0    0    0    0 -0.00000000000E+00 -0.00000000000E+00 -0.64930732323E+04  0.65000000000E+04  0.30000000000E+03 0.  1.
     100001    1    1    2    0    0  0.56857817028E+03 -0.19328785580E+03 -0.64704488576E+04  0.65000000000E+04  0.15050000000E+03 0.  1.
     100001    1    1    2    0    0 -0.56857817028E+03  0.19328785580E+03  0.64704488576E+04  0.65000000000E+04  0.15050000000E+03 0.  1.
</event>
<event>
 4    1  0.5640637E-004  0.6500000E+04  0.7818608E-02  0.7223770E-01
         52   -1    0    0    0    0  0.00000000000E+00  0.00000000000E+00  0.64930732323E+04  0.65000000000E+04  0.30000000000E+03 0. -1.
        -52   -1    0    0    0    0 -0.00000000000E+00 -0.00000000000E+00 -0.64930732323E+04  0.65000000000E+04  0.30000000000E+03 0.  1.
     100001    1    1    2    0    0 -0.27535915816E+04  0.25005061675E+03 -0.58806936530E+04  0.65000000000E+04  0.15050000000E+03 0.  1.
     100001    1    1    2    0    0  0.27535915816E+04 -0.25005061675E+03  0.58806936530E+04  0.65000000000E+04  0.15050000000E+03 0. -1.
</event>
<event>
 4    1  0.5640637E-004  0.6500000E+04  0.7818608E-02  0.7223770E-01
         52   -1    0    0    0    0  0.00000000000E+00  0.00000000000E+00  0.64930732323E+04  0.65000000000E+04  0.30000000000E+03 0. -1.
        -52   -1    0    0    0    0 -0.00000000000E+00 -0.00000000000E+00 -0.64930732323E+04  0.65000000000E+04  0.30000000000E+03 0.  1.
     100001    1    1    2    0    0 -0.29408572500E+03  0.76067804192E+03  0.64468777135E+04  0.65000000000E+04  0.15050000000E+03 0. -1.
     100001    1    1    2    0    0  0.29408572500E+03 -0.76067804192E+03 -0.64468777135E+04  0.65000000000E+04  0.15050000000E+03 0.  1.
</event>
<event>
 4    1  0.5640637E-004  0.6500000E+04  0.7818608E-02  0.7223770E-01
         52   -1    0    0    0    0  0.00000000000E+00  0.00000000000E+00  0.64930732323E+04  0.65000000000E+04  0.30000000000E+03 0. -1.
        -52   -1    0    0    0    0 -0.00000000000E+00 -0.00000000000E+00 -0.64930732323E+04  0.65000000000E+04  0.30000000000E+03 0.  1.
     100001    1    1    2    0    0 -0.44809036376E+04  0.22948566647E+04  0.41088301534E+04  0.65000000000E+04  0.15050000000E+03 0. -1.
     100001    1    1    2    0    0  0.44809036376E+04 -0.22948566647E+04 -0.41088301534E+04  0.65000000000E+04  0.15050000000E+03 0.  1.
</event>
<event>
 4    1  0.5640637E-004  0.6500000E+04  0.7818608E-02  0.7223770E-01
         52   -1    0    0    0    0  0.00000000000E+00  0.00000000000E+00  0.64930732323E+04  0.65000000000E+04  0.30000000000E+03 0.  1.
        -52   -1    0    0    0    0 -0.00000000000E+00 -0.00000000000E+00 -0.64930732323E+04  0.65000000000E+04  0.30000000000E+03 0. -1.
     100001    1    1    2    0    0 -0.18072755747E+03 -0.35574663449E+03 -0.64859950379E+04  0.65000000000E+04  0.15050000000E+03 0. -1.
     100001    1    1    2    0    0  0.18072755747E+03  0.35574663449E+03  0.64859950379E+04  0.65000000000E+04  0.15050000000E+03 0.  1.
</event>
<event>
 4    1  0.5640637E-004  0.6500000E+04  0.7818608E-02  0.7223770E-01
         52   -1    0    0    0    0  0.00000000000E+00  0.00000000000E+00  0.64930732323E+04  0.65000000000E+04  0.30000000000E+03 0.  1.
        -52   -1    0    0    0    0 -0.00000000000E+00 -0.00000000000E+00 -0.64930732323E+04  0.65000000000E+04  0.30000000000E+03 0. -1.
     100001    1    1    2    0    0  0.11739417216E+04  0.90061955868E+03  0.63275662774E+04  0.65000000000E+04  0.15050000000E+03 0.  1.
     100001    1    1    2    0    0 -0.11739417216E+04 -0.90061955868E+03 -0.63275662774E+04  0.65000000000E+04  0.15050000000E+03 0. -1.
</event>
<event>
 4    1  0.5640637E-004  0.6500000E+04  0.7818608E-02  0.7223770E-01
         52   -1    0    0    0    0  0.00000000000E+00  0.00000000000E+00  0.64930732323E+04  0.65000000000E+04  0.30000000000E+03 0.  1.
        -52   -1    0    0    0    0 -0.00000000000E+00 -0.00000000000E+00 -0.64930732323E+04  0.65000000000E+04  0.30000000000E+03 0. -1.
     100001    1    1    2    0    0 -0.19970750000E+04 -0.11324241897E+04  0.60791986848E+04  0.65000000000E+04  0.15050000000E+03 0.  1.
     100001    1    1    2    0    0  0.19970750000E+04  0.11324241897E+04 -0.60791986848E+04  0.65000000000E+04  0.15050000000E+03 0. -1.
</event>
<event>
 4    1  0.5640637E-004  0.6500000E+04  0.7818608E-02  0.7223770E-01
         52   -1    0    0    0    0  0.00000000000E+00  0.00000000000E+00  0.64930732323E+04  0.65000000000E+04  0.30000000000E+03 0.  1.
        -52   -1    0    0    0    0 -0.00000000000E+00 -0.00000000000E+00 -0.64930732323E+04  0.65000000000E+04  0.30000000000E+03 0. -1.
     100001    1    1    2    0    0  0.70413490557E+03 -0.20618486970E+04  0.61221175859E+04  0.65000000000E+04  0.15050000000E+03 0.  1.
     100001    1    1    2    0    0 -0.70413490557E+03  0.20618486970E+04 -0.61221175859E+04  0.65000000000E+04  0.15050000000E+03 0. -1.
</event>
<event>
 4    1  0.5640637E-004  0.6500000E+04  0.7818608E-02  0.7223770E-01
         52   -1    0    0    0    0  0.00000000000E+00  0.00000000000E+00  0.64930732323E+04  0.65000000000E+04  0.30000000000E+03 0. -1.
        -52   -1    0    0    0    0 -0.00000000000E+00 -0.00000000000E+00 -0.64930732323E+04  0.65000000000E+04  0.30000000000E+03 0.  1.
     100001    1    1    2    0    0 -0.65807238709E+03 -0.21913617610E+03  0.64611353352E+04  0.65000000000E+04  0.15050000000E+03 0. -1.
     100001    1    1    2    0    0  0.65807238709E+03  0.21913617610E+03 -0.64611353352E+04  0.65000000000E+04  0.15050000000E+03 0.  1.
</event>
<event>
 4    1  0.5640637E-004  0.6500000E+04  0.7818608E-02  0.7223770E-01
         52   -1    0    0    0    0  0.00000000000E+00  0.00000000000E+00  0.64930732323E+04  0.65000000000E+04  0.30000000000E+03 0. -1.
        -52   -1    0    0    0    0 -0.00000000000E+00 -0.00000000000E+00 -0.64930732323E+04  0.65000000000E+04  0.30000000000E+03 0.  1.
     100001    1    1    2    0    0 -0.38739313985E+03 -0.17838942400E+03  0.64842465652E+04  0.65000000000E+04  0.15050000000E+03 0. -1.
     100001    1    1    2    0    0  0.38739313985E+03  0.17838942400E+03 -0.64842465652E+04  0.65000000000E+04  0.15050000000E+03 0.  1.
</event>
<event>
 4    1  0.5640637E-004  0.6500000E+04  0.7818608E-02  0.7223770E-01
         52   -1    0    0    0    0  0.00000000000E+00  0.00000000000E+00  0.64930732323E+04  0.65000000000E+04  0.30000000000E+03 0.  1.
        -52   -1    0    0    0    0 -0.00000000000E+00 -0.00000000000E+00 -0.64930732323E+04  0.65000000000E+04  0.30000000000E+03 0. -1.
     100001    1    1    2    0    0 -0.26747098938E+04 -0.14005361925E+04 -0.57542831967E+04  0.65000000000E+04  0.15050000000E+03 0. -1.
     100001    1    1    2    0    0  0.26747098938E+04  0.14005361925E+04  0.57542831967E+04  0.65000000000E+04  0.15050000000E+03 0.  1.
</event>
<event>
 4    1  0.6940756E-004  0.6500000E+04  0.7818608E-02  0.7223770E-01
         52   -1    0    0    0    0  0.00000000000E+00  0.00000000000E+00  0.64930732323E+04  0.65000000000E+04  0.30000000000E+03 0. -1.
        -52   -1    0    0    0    0 -0.00000000000E+00 -0.00000000000E+00 -0.64930732323E+04  0.65000000000E+04  0.30000000000E+03 0.  1.
     100001    1    1    2    0    0  0.10421029560E+03  0.11544702013E+03  0.64963960740E+04  0.65000000000E+04  0.15050000000E+03 0. -1.
     100001    1    1    2    0    0 -0.10421029560E+03 -0.11544702013E+03 -0.64963960740E+04  0.65000000000E+04  0.15050000000E+03 0.  1.
</event>
<event>
 4    1  0.5640637E-004  0.6500000E+04  0.7818608E-02  0.7223770E-01
         52   -1    0    0    0    0  0.00000000000E+00  0.00000000000E+00  0.64930732323E+04  0.65000000000E+04  0.30000000000E+03 0. -1.
        -52   -1    0    0    0    0 -0.00000000000E+00 -0.00000000000E+00 -0.64930732323E+04  0.65000000000E+04  0.30000000000E+03 0.  1.
     100001    1    1    2    0    0  0.32373042645E+03  0.18407902956E+03  0.64875776120E+04  0.65000000000E+04  0.15050000000E+03 0. -1.
     100001    1    1    2    0    0 -0.32373042645E+03 -0.18407902956E+03 -0.64875776120E+04  0.65000000000E+04  0.15050000000E+03 0.  1.
</event>
<event>
 4    1  0.5640637E-004  0.6500000E+04  0.7818608E-02  0.7223770E-01
         52   -1    0    0    0    0  0.00000000000E+00  0.00000000000E+00  0.64930732323E+04  0.65000000000E+04  0.30000000000E+03 0. -1.
        -52   -1    0    0    0    0 -0.00000000000E+00 -0.00000000000E+00 -0.64930732323E+04  0.65000000000E+04  0.30000000000E+03 0.  1.
     100001    1    1    2    0    0  0.12624555696E+04 -0.68547099302E+03  0.63374825603E+04  0.65000000000E+04  0.15050000000E+03 0. -1.
     100001    1    1    2    0    0 -0.12624555696E+04  0.68547099302E+03 -0.63374825603E+04  0.65000000000E+04  0.15050000000E+03 0.  1.
</event>
<event>
 4    1  0.5640637E-004  0.6500000E+04  0.7818608E-02  0.7223770E-01
         52   -1    0    0    0    0  0.00000000000E+00  0.00000000000E+00  0.64930732323E+04  0.65000000000E+04  0.30000000000E+03 0.  1.
        -52   -1    0    0    0    0 -0.00000000000E+00 -0.00000000000E+00 -0.64930732323E+04  0.65000000000E+04  0.30000000000E+03 0. -1.
     100001    1    1    2    0    0 -0.19078877608E+04 -0.23246088245E+03 -0.62075176988E+04  0.65000000000E+04  0.15050000000E+03 0. -1.
     100001    1    1    2    0    0  0.19078877608E+04  0.23246088245E+03  0.62075176988E+04  0.65000000000E+04  0.15050000000E+03 0.  1.
</event>
<event>
 4    1  0.5640637E-004  0.6500000E+04  0.7818608E-02  0.7223770E-01
         52   -1    0    0    0    0  0.00000000000E+00  0.00000000000E+00  0.64930732323E+04  0.65000000000E+04  0.30000000000E+03 0. -1.
        -52   -1    0    0    0    0 -0.00000000000E+00 -0.00000000000E+00 -0.64930732323E+04  0.65000000000E+04  0.30000000000E+03 0.  1.
     100001    1    1    2    0    0  0.72570580776E+03 -0.19286960870E+04  0.61628590958E+04  0.65000000000E+04  0.15050000000E+03 0. -1.
     100001    1    1    2    0    0 -0.72570580776E+03  0.19286960870E+04 -0.61628590958E+04  0.65000000000E+04  0.15050000000E+03 0.  1.
</event>
<event>
 4    1  0.5640637E-004  0.6500000E+04  0.7818608E-02  0.7223770E-01
         52   -1    0    0    0    0  0.00000000000E+00  0.00000000000E+00  0.64930732323E+04  0.65000000000E+04  0.30000000000E+03 0.  1.
        -52   -1    0    0    0    0 -0.00000000000E+00 -0.00000000000E+00 -0.64930732323E+04  0.65000000000E+04  0.30000000000E+03 0. -1.
     100001    1    1    2    0    0 -0.15113618056E+04 -0.57980789848E+03  0.62934059176E+04  0.65000000000E+04  0.15050000000E+03 0.  1.
     100001    1    1    2    0    0  0.15113618056E+04  0.57980789848E+03 -0.62934059176E+04  0.65000000000E+04  0.15050000000E+03 0. -1.
</event>
<event>
 4    1  0.5640637E-004  0.6500000E+04  0.7818608E-02  0.7223770E-01
         52   -1    0    0    0    0  0.00000000000E+00  0.00000000000E+00  0.64930732323E+04  0.65000000000E+04  0.30000000000E+03 0. -1.
        -52   -1    0    0    0    0 -0.00000000000E+00 -0.00000000000E+00 -0.64930732323E+04  0.65000000000E+04  0.30000000000E+03 0.  1.
     100001    1    1    2    0    0 -0.11658772936E+04 -0.12503504525E+04 -0.62693463481E+04  0.65000000000E+04  0.15050000000E+03 0.  1.
     100001    1    1    2    0    0  0.11658772936E+04  0.12503504525E+04  0.62693463481E+04  0.65000000000E+04  0.15050000000E+03 0. -1.
</event>
<event>
 4    1  0.5640637E-004  0.6500000E+04  0.7818608E-02  0.7223770E-01
         52   -1    0    0    0    0  0.00000000000E+00  0.00000000000E+00  0.64930732323E+04  0.65000000000E+04  0.30000000000E+03 0. -1.
        -52   -1    0    0    0    0 -0.00000000000E+00 -0.00000000000E+00 -0.64930732323E+04  0.65000000000E+04  0.30000000000E+03 0.  1.
     100001    1    1    2    0    0 -0.63638358132E+04  0.12639473218E+04 -0.36246470252E+03  0.65000000000E+04  0.15050000000E+03 0. -1.
     100001    1    1    2    0    0  0.63638358132E+04 -0.12639473218E+04  0.36246470252E+03  0.65000000000E+04  0.15050000000E+03 0.  1.
</event>
<event>
 4    1  0.5640637E-004  0.6500000E+04  0.7818608E-02  0.7223770E-01
         52   -1    0    0    0    0  0.00000000000E+00  0.00000000000E+00  0.64930732323E+04  0.65000000000E+04  0.30000000000E+03 0. -1.
        -52   -1    0    0    0    0 -0.00000000000E+00 -0.00000000000E+00 -0.64930732323E+04  0.65000000000E+04  0.30000000000E+03 0.  1.
     100001    1    1    2    0    0 -0.11425074897E+04  0.23341052878E+03 -0.63927729438E+04  0.65000000000E+04  0.15050000000E+03 0.  1.
     100001    1    1    2    0    0  0.11425074897E+04 -0.23341052878E+03  0.63927729438E+04  0.65000000000E+04  0.15050000000E+03 0. -1.
</event>
<event>
 4    1  0.5640637E-004  0.6500000E+04  0.7818608E-02  0.7223770E-01
         52   -1    0    0    0    0  0.00000000000E+00  0.00000000000E+00  0.64930732323E+04  0.65000000000E+04  0.30000000000E+03 0. -1.
        -52   -1    0    0    0    0 -0.00000000000E+00 -0.00000000000E+00 -0.64930732323E+04  0.65000000000E+04  0.30000000000E+03 0.  1.
     100001    1    1    2    0    0  0.30569287044E+04  0.47130399325E+03 -0.57149286253E+04  0.65000000000E+04  0.15050000000E+03 0.  1.
     100001    1    1    2    0    0 -0.30569287044E+04 -0.47130399325E+03  0.57149286253E+04  0.65000000000E+04  0.15050000000E+03 0. -1.
</event>
<event>
 4    1  0.5640637E-004  0.6500000E+04  0.7818608E-02  0.7223770E-01
         52   -1    0    0    0    0  0.00000000000E+00  0.00000000000E+00  0.64930732323E+04  0.65000000000E+04  0.30000000000E+03 0. -1.
        -52   -1    0    0    0    0 -0.00000000000E+00 -0.00000000000E+00 -0.64930732323E+04  0.65000000000E+04  0.30000000000E+03 0. -1.
     100001    1    1    2    0    0 -0.18232799344E+03  0.24836759477E+02  0.64956515753E+04  0.65000000000E+04  0.15050000000E+03 0. -1.
     100001    1    1    2    0    0  0.18232799344E+03 -0.24836759477E+02 -0.64956515753E+04  0.65000000000E+04  0.15050000000E+03 0. -1.
</event>
<event>
 4    1  0.5640637E-004  0.6500000E+04  0.7818608E-02  0.7223770E-01
         52   -1    0    0    0    0  0.00000000000E+00  0.00000000000E+00  0.64930732323E+04  0.65000000000E+04  0.30000000000E+03 0. -1.
        -52   -1    0    0    0    0 -0.00000000000E+00 -0.00000000000E+00 -0.64930732323E+04  0.65000000000E+04  0.30000000000E+03 0.  1.
     100001    1    1    2    0    0 -0.28216482691E+04 -0.54946707761E+04  0.20184756273E+04  0.65000000000E+04  0.15050000000E+03 0. -1.
     100001    1    1    2    0    0  0.28216482691E+04  0.54946707761E+04 -0.20184756273E+04  0.65000000000E+04  0.15050000000E+03 0.  1.
</event>
<event>
 4    1  0.5640637E-004  0.6500000E+04  0.7818608E-02  0.7223770E-01
         52   -1    0    0    0    0  0.00000000000E+00  0.00000000000E+00  0.64930732323E+04  0.65000000000E+04  0.30000000000E+03 0. -1.
        -52   -1    0    0    0    0 -0.00000000000E+00 -0.00000000000E+00 -0.64930732323E+04  0.65000000000E+04  0.30000000000E+03 0.  1.
     100001    1    1    2    0    0 -0.92024096415E+03  0.43463320901E+04  0.47423521253E+04  0.65000000000E+04  0.15050000000E+03 0. -1.
     100001    1    1    2    0    0  0.92024096415E+03 -0.43463320901E+04 -0.47423521253E+04  0.65000000000E+04  0.15050000000E+03 0.  1.
</event>
<event>
 4    1  0.5640637E-004  0.6500000E+04  0.7818608E-02  0.7223770E-01
         52   -1    0    0    0    0  0.00000000000E+00  0.00000000000E+00  0.64930732323E+04  0.65000000000E+04  0.30000000000E+03 0.  1.
        -52   -1    0    0    0    0 -0.00000000000E+00 -0.00000000000E+00 -0.64930732323E+04  0.65000000000E+04  0.30000000000E+03 0. -1.
     100001    1    1    2    0    0 -0.34322454835E+04 -0.25713368317E+04  0.48821376044E+04  0.65000000000E+04  0.15050000000E+03 0.  1.
     100001    1    1    2    0    0  0.34322454835E+04  0.25713368317E+04 -0.48821376044E+04  0.65000000000E+04  0.15050000000E+03 0. -1.
</event>
<event>
 4    1  0.5640637E-004  0.6500000E+04  0.7818608E-02  0.7223770E-01
         52   -1    0    0    0    0  0.00000000000E+00  0.00000000000E+00  0.64930732323E+04  0.65000000000E+04  0.30000000000E+03 0.  1.
        -52   -1    0    0    0    0 -0.00000000000E+00 -0.00000000000E+00 -0.64930732323E+04  0.65000000000E+04  0.30000000000E+03 0. -1.
     100001    1    1    2    0    0 -0.11965946678E+04 -0.47408710878E+02 -0.63869604168E+04  0.65000000000E+04  0.15050000000E+03 0. -1.
     100001    1    1    2    0    0  0.11965946678E+04  0.47408710878E+02  0.63869604168E+04  0.65000000000E+04  0.15050000000E+03 0.  1.
</event>
<event>
 4    1  0.5640637E-004  0.6500000E+04  0.7818608E-02  0.7223770E-01
         52   -1    0    0    0    0  0.00000000000E+00  0.00000000000E+00  0.64930732323E+04  0.65000000000E+04  0.30000000000E+03 0.  1.
        -52   -1    0    0    0    0 -0.00000000000E+00 -0.00000000000E+00 -0.64930732323E+04  0.65000000000E+04  0.30000000000E+03 0. -1.
     100001    1    1    2    0    0  0.56519682900E+04 -0.22246863218E+04  0.23094100911E+04  0.65000000000E+04  0.15050000000E+03 0.  1.
     100001    1    1    2    0    0 -0.56519682900E+04  0.22246863218E+04 -0.23094100911E+04  0.65000000000E+04  0.15050000000E+03 0. -1.
</event>
<event>
 4    1  0.5640637E-004  0.6500000E+04  0.7818608E-02  0.7223770E-01
         52   -1    0    0    0    0  0.00000000000E+00  0.00000000000E+00  0.64930732323E+04  0.65000000000E+04  0.30000000000E+03 0.  1.
        -52   -1    0    0    0    0 -0.00000000000E+00 -0.00000000000E+00 -0.64930732323E+04  0.65000000000E+04  0.30000000000E+03 0. -1.
     100001    1    1    2    0    0  0.50897098040E+03 -0.12554134535E+04  0.63554886006E+04  0.65000000000E+04  0.15050000000E+03 0.  1.
     100001    1    1    2    0    0 -0.50897098040E+03  0.12554134535E+04 -0.63554886006E+04  0.65000000000E+04  0.15050000000E+03 0. -1.
</event>
<event>
 4    1  0.5640637E-004  0.6500000E+04  0.7818608E-02  0.7223770E-01
         52   -1    0    0    0    0  0.00000000000E+00  0.00000000000E+00  0.64930732323E+04  0.65000000000E+04  0.30000000000E+03 0. -1.
        -52   -1    0    0    0    0 -0.00000000000E+00 -0.00000000000E+00 -0.64930732323E+04  0.65000000000E+04  0.30000000000E+03 0.  1.
     100001    1    1    2    0    0  0.43008499024E+03  0.18347226223E+04 -0.62190167672E+04  0.65000000000E+04  0.15050000000E+03 0.  1.
     100001    1    1    2    0    0 -0.43008499024E+03 -0.18347226223E+04  0.62190167672E+04  0.65000000000E+04  0.15050000000E+03 0. -1.
</event>
<event>
 4    1  0.5640637E-004  0.6500000E+04  0.7818608E-02  0.7223770E-01
         52   -1    0    0    0    0  0.00000000000E+00  0.00000000000E+00  0.64930732323E+04  0.65000000000E+04  0.30000000000E+03 0. -1.
        -52   -1    0    0    0    0 -0.00000000000E+00 -0.00000000000E+00 -0.64930732323E+04  0.65000000000E+04  0.30000000000E+03 0.  1.
     100001    1    1    2    0    0  0.68533990867E+03 -0.32750513375E+04 -0.55706101727E+04  0.65000000000E+04  0.15050000000E+03 0.  1.
     100001    1    1    2    0    0 -0.68533990867E+03  0.32750513375E+04  0.55706101727E+04  0.65000000000E+04  0.15050000000E+03 0. -1.
</event>
<event>
 4    1  0.5640637E-004  0.6500000E+04  0.7818608E-02  0.7223770E-01
         52   -1    0    0    0    0  0.00000000000E+00  0.00000000000E+00  0.64930732323E+04  0.65000000000E+04  0.30000000000E+03 0.  1.
        -52   -1    0    0    0    0 -0.00000000000E+00 -0.00000000000E+00 -0.64930732323E+04  0.65000000000E+04  0.30000000000E+03 0. -1.
     100001    1    1    2    0    0  0.24673716206E+04 -0.16210530211E+04 -0.57889216732E+04  0.65000000000E+04  0.15050000000E+03 0. -1.
     100001    1    1    2    0    0 -0.24673716206E+04  0.16210530211E+04  0.57889216732E+04  0.65000000000E+04  0.15050000000E+03 0.  1.
</event>
<event>
 4    1  0.5640637E-004  0.6500000E+04  0.7818608E-02  0.7223770E-01
         52   -1    0    0    0    0  0.00000000000E+00  0.00000000000E+00  0.64930732323E+04  0.65000000000E+04  0.30000000000E+03 0. -1.
        -52   -1    0    0    0    0 -0.00000000000E+00 -0.00000000000E+00 -0.64930732323E+04  0.65000000000E+04  0.30000000000E+03 0.  1.
     100001    1    1    2    0    0 -0.18748362740E+04  0.41838829841E+04 -0.46051560094E+04  0.65000000000E+04  0.15050000000E+03 0.  1.
     100001    1    1    2    0    0  0.18748362740E+04 -0.41838829841E+04  0.46051560094E+04  0.65000000000E+04  0.15050000000E+03 0. -1.
</event>
<event>
 4    1  0.5640637E-004  0.6500000E+04  0.7818608E-02  0.7223770E-01
         52   -1    0    0    0    0  0.00000000000E+00  0.00000000000E+00  0.64930732323E+04  0.65000000000E+04  0.30000000000E+03 0.  1.
        -52   -1    0    0    0    0 -0.00000000000E+00 -0.00000000000E+00 -0.64930732323E+04  0.65000000000E+04  0.30000000000E+03 0. -1.
     100001    1    1    2    0    0  0.15479165112E+04  0.25807909568E+04 -0.57594116246E+04  0.65000000000E+04  0.15050000000E+03 0. -1.
     100001    1    1    2    0    0 -0.15479165112E+04 -0.25807909568E+04  0.57594116246E+04  0.65000000000E+04  0.15050000000E+03 0.  1.
</event>
<event>
 4    1  0.5640637E-004  0.6500000E+04  0.7818608E-02  0.7223770E-01
         52   -1    0    0    0    0  0.00000000000E+00  0.00000000000E+00  0.64930732323E+04  0.65000000000E+04  0.30000000000E+03 0. -1.
        -52   -1    0    0    0    0 -0.00000000000E+00 -0.00000000000E+00 -0.64930732323E+04  0.65000000000E+04  0.30000000000E+03 0.  1.
     100001    1    1    2    0    0  0.30152486435E+04  0.22295546000E+04  0.53070435888E+04  0.65000000000E+04  0.15050000000E+03 0. -1.
     100001    1    1    2    0    0 -0.30152486435E+04 -0.22295546000E+04 -0.53070435888E+04  0.65000000000E+04  0.15050000000E+03 0.  1.
</event>
<event>
 4    1  0.5640637E-004  0.6500000E+04  0.7818608E-02  0.7223770E-01
         52   -1    0    0    0    0  0.00000000000E+00  0.00000000000E+00  0.64930732323E+04  0.65000000000E+04  0.30000000000E+03 0.  1.
        -52   -1    0    0    0    0 -0.00000000000E+00 -0.00000000000E+00 -0.64930732323E+04  0.65000000000E+04  0.30000000000E+03 0. -1.
     100001    1    1    2    0    0  0.13517290539E+04 -0.22418436248E+03 -0.63521586635E+04  0.65000000000E+04  0.15050000000E+03 0. -1.
     100001    1    1    2    0    0 -0.13517290539E+04  0.22418436248E+03  0.63521586635E+04  0.65000000000E+04  0.15050000000E+03 0.  1.
</event>
<event>
 4    1  0.5640637E-004  0.6500000E+04  0.7818608E-02  0.7223770E-01
         52   -1    0    0    0    0  0.00000000000E+00  0.00000000000E+00  0.64930732323E+04  0.65000000000E+04  0.30000000000E+03 0. -1.
        -52   -1    0    0    0    0 -0.00000000000E+00 -0.00000000000E+00 -0.64930732323E+04  0.65000000000E+04  0.30000000000E+03 0.  1.
     100001    1    1    2    0    0  0.60796767052E+04 -0.12306490833E+02  0.22944998279E+04  0.65000000000E+04  0.15050000000E+03 0. -1.
     100001    1    1    2    0    0 -0.60796767052E+04  0.12306490833E+02 -0.22944998279E+04  0.65000000000E+04  0.15050000000E+03 0.  1.
</event>
<event>
 4    1  0.5640637E-004  0.6500000E+04  0.7818608E-02  0.7223770E-01
         52   -1    0    0    0    0  0.00000000000E+00  0.00000000000E+00  0.64930732323E+04  0.65000000000E+04  0.30000000000E+03 0.  1.
        -52   -1    0    0    0    0 -0.00000000000E+00 -0.00000000000E+00 -0.64930732323E+04  0.65000000000E+04  0.30000000000E+03 0.  1.
     100001    1    1    2    0    0  0.15170569111E+03 -0.46151464735E+03  0.64800724814E+04  0.65000000000E+04  0.15050000000E+03 0.  1.
     100001    1    1    2    0    0 -0.15170569111E+03  0.46151464735E+03 -0.64800724814E+04  0.65000000000E+04  0.15050000000E+03 0.  1.
</event>
<event>
 4    1  0.5640637E-004  0.6500000E+04  0.7818608E-02  0.7223770E-01
         52   -1    0    0    0    0  0.00000000000E+00  0.00000000000E+00  0.64930732323E+04  0.65000000000E+04  0.30000000000E+03 0. -1.
        -52   -1    0    0    0    0 -0.00000000000E+00 -0.00000000000E+00 -0.64930732323E+04  0.65000000000E+04  0.30000000000E+03 0.  1.
     100001    1    1    2    0    0  0.36781095811E+03  0.12428307511E+03  0.64866492557E+04  0.65000000000E+04  0.15050000000E+03 0. -1.
     100001    1    1    2    0    0 -0.36781095811E+03 -0.12428307511E+03 -0.64866492557E+04  0.65000000000E+04  0.15050000000E+03 0.  1.
</event>
<event>
 4    1  0.5640637E-004  0.6500000E+04  0.7818608E-02  0.7223770E-01
         52   -1    0    0    0    0  0.00000000000E+00  0.00000000000E+00  0.64930732323E+04  0.65000000000E+04  0.30000000000E+03 0. -1.
        -52   -1    0    0    0    0 -0.00000000000E+00 -0.00000000000E+00 -0.64930732323E+04  0.65000000000E+04  0.30000000000E+03 0.  1.
     100001    1    1    2    0    0  0.21008699466E+04  0.43966435846E+04 -0.42992116030E+04  0.65000000000E+04  0.15050000000E+03 0.  1.
     100001    1    1    2    0    0 -0.21008699466E+04 -0.43966435846E+04  0.42992116030E+04  0.65000000000E+04  0.15050000000E+03 0. -1.
</event>
<event>
 4    1  0.5640637E-004  0.6500000E+04  0.7818608E-02  0.7223770E-01
         52   -1    0    0    0    0  0.00000000000E+00  0.00000000000E+00  0.64930732323E+04  0.65000000000E+04  0.30000000000E+03 0. -1.
        -52   -1    0    0    0    0 -0.00000000000E+00 -0.00000000000E+00 -0.64930732323E+04  0.65000000000E+04  0.30000000000E+03 0.  1.
     100001    1    1    2    0    0  0.29109752444E+04  0.25399287489E+04 -0.52251636172E+04  0.65000000000E+04  0.15050000000E+03 0.  1.
     100001    1    1    2    0    0 -0.29109752444E+04 -0.25399287489E+04  0.52251636172E+04  0.65000000000E+04  0.15050000000E+03 0. -1.
</event>
<event>
 4    1  0.5640637E-004  0.6500000E+04  0.7818608E-02  0.7223770E-01
         52   -1    0    0    0    0  0.00000000000E+00  0.00000000000E+00  0.64930732323E+04  0.65000000000E+04  0.30000000000E+03 0.  1.
        -52   -1    0    0    0    0 -0.00000000000E+00 -0.00000000000E+00 -0.64930732323E+04  0.65000000000E+04  0.30000000000E+03 0. -1.
     100001    1    1    2    0    0  0.86316347888E+03 -0.23523499882E+02  0.64406323605E+04  0.65000000000E+04  0.15050000000E+03 0.  1.
     100001    1    1    2    0    0 -0.86316347888E+03  0.23523499882E+02 -0.64406323605E+04  0.65000000000E+04  0.15050000000E+03 0. -1.
</event>
<event>
 4    1  0.5640637E-004  0.6500000E+04  0.7818608E-02  0.7223770E-01
         52   -1    0    0    0    0  0.00000000000E+00  0.00000000000E+00  0.64930732323E+04  0.65000000000E+04  0.30000000000E+03 0. -1.
        -52   -1    0    0    0    0 -0.00000000000E+00 -0.00000000000E+00 -0.64930732323E+04  0.65000000000E+04  0.30000000000E+03 0.  1.
     100001    1    1    2    0    0  0.94596062199E+01  0.47816280835E+04 -0.44003742042E+04  0.65000000000E+04  0.15050000000E+03 0.  1.
     100001    1    1    2    0    0 -0.94596062199E+01 -0.47816280835E+04  0.44003742042E+04  0.65000000000E+04  0.15050000000E+03 0. -1.
</event>
<event>
 4    1  0.5640637E-004  0.6500000E+04  0.7818608E-02  0.7223770E-01
         52   -1    0    0    0    0  0.00000000000E+00  0.00000000000E+00  0.64930732323E+04  0.65000000000E+04  0.30000000000E+03 0.  1.
        -52   -1    0    0    0    0 -0.00000000000E+00 -0.00000000000E+00 -0.64930732323E+04  0.65000000000E+04  0.30000000000E+03 0.  1.
     100001    1    1    2    0    0  0.49911024711E+03  0.52647051428E+03 -0.64576363717E+04  0.65000000000E+04  0.15050000000E+03 0.  1.
     100001    1    1    2    0    0 -0.49911024711E+03 -0.52647051428E+03  0.64576363717E+04  0.65000000000E+04  0.15050000000E+03 0.  1.
</event>
<event>
 4    1  0.5640637E-004  0.6500000E+04  0.7818608E-02  0.7223770E-01
         52   -1    0    0    0    0  0.00000000000E+00  0.00000000000E+00  0.64930732323E+04  0.65000000000E+04  0.30000000000E+03 0. -1.
        -52   -1    0    0    0    0 -0.00000000000E+00 -0.00000000000E+00 -0.64930732323E+04  0.65000000000E+04  0.30000000000E+03 0.  1.
     100001    1    1    2    0    0 -0.12239432754E+03 -0.65664646358E+03 -0.64638366935E+04  0.65000000000E+04  0.15050000000E+03 0.  1.
     100001    1    1    2    0    0  0.12239432754E+03  0.65664646358E+03  0.64638366935E+04  0.65000000000E+04  0.15050000000E+03 0. -1.
</event>
<event>
 4    1  0.5640637E-004  0.6500000E+04  0.7818608E-02  0.7223770E-01
         52   -1    0    0    0    0  0.00000000000E+00  0.00000000000E+00  0.64930732323E+04  0.65000000000E+04  0.30000000000E+03 0.  1.
        -52   -1    0    0    0    0 -0.00000000000E+00 -0.00000000000E+00 -0.64930732323E+04  0.65000000000E+04  0.30000000000E+03 0. -1.
     100001    1    1    2    0    0 -0.71297731614E+03 -0.37635978056E+04  0.52492232429E+04  0.65000000000E+04  0.15050000000E+03 0.  1.
     100001    1    1    2    0    0  0.71297731614E+03  0.37635978056E+04 -0.52492232429E+04  0.65000000000E+04  0.15050000000E+03 0. -1.
</event>
<event>
 4    1  0.5640637E-004  0.6500000E+04  0.7818608E-02  0.7223770E-01
         52   -1    0    0    0    0  0.00000000000E+00  0.00000000000E+00  0.64930732323E+04  0.65000000000E+04  0.30000000000E+03 0. -1.
        -52   -1    0    0    0    0 -0.00000000000E+00 -0.00000000000E+00 -0.64930732323E+04  0.65000000000E+04  0.30000000000E+03 0.  1.
     100001    1    1    2    0    0 -0.14595642317E+04  0.19050328311E+04  0.60388634623E+04  0.65000000000E+04  0.15050000000E+03 0. -1.
     100001    1    1    2    0    0  0.14595642317E+04 -0.19050328311E+04 -0.60388634623E+04  0.65000000000E+04  0.15050000000E+03 0.  1.
</event>
<event>
 4    1  0.5640637E-004  0.6500000E+04  0.7818608E-02  0.7223770E-01
         52   -1    0    0    0    0  0.00000000000E+00  0.00000000000E+00  0.64930732323E+04  0.65000000000E+04  0.30000000000E+03 0. -1.
        -52   -1    0    0    0    0 -0.00000000000E+00 -0.00000000000E+00 -0.64930732323E+04  0.65000000000E+04  0.30000000000E+03 0.  1.
     100001    1    1    2    0    0 -0.46865038829E+03  0.41403791491E+03 -0.64680978014E+04  0.65000000000E+04  0.15050000000E+03 0.  1.
     100001    1    1    2    0    0  0.46865038829E+03 -0.41403791491E+03  0.64680978014E+04  0.65000000000E+04  0.15050000000E+03 0. -1.
</event>
<event>
 4    1  0.5640637E-004  0.6500000E+04  0.7818608E-02  0.7223770E-01
         52   -1    0    0    0    0  0.00000000000E+00  0.00000000000E+00  0.64930732323E+04  0.65000000000E+04  0.30000000000E+03 0.  1.
        -52   -1    0    0    0    0 -0.00000000000E+00 -0.00000000000E+00 -0.64930732323E+04  0.65000000000E+04  0.30000000000E+03 0. -1.
     100001    1    1    2    0    0  0.31252884771E+03  0.14848825338E+04  0.63186073885E+04  0.65000000000E+04  0.15050000000E+03 0.  1.
     100001    1    1    2    0    0 -0.31252884771E+03 -0.14848825338E+04 -0.63186073885E+04  0.65000000000E+04  0.15050000000E+03 0. -1.
</event>
<event>
 4    1  0.5640637E-004  0.6500000E+04  0.7818608E-02  0.7223770E-01
         52   -1    0    0    0    0  0.00000000000E+00  0.00000000000E+00  0.64930732323E+04  0.65000000000E+04  0.30000000000E+03 0.  1.
        -52   -1    0    0    0    0 -0.00000000000E+00 -0.00000000000E+00 -0.64930732323E+04  0.65000000000E+04  0.30000000000E+03 0. -1.
     100001    1    1    2    0    0 -0.44363394458E+04  0.15083463216E+04 -0.45023475483E+04  0.65000000000E+04  0.15050000000E+03 0. -1.
     100001    1    1    2    0    0  0.44363394458E+04 -0.15083463216E+04  0.45023475483E+04  0.65000000000E+04  0.15050000000E+03 0.  1.
</event>
<event>
 4    1  0.5640637E-004  0.6500000E+04  0.7818608E-02  0.7223770E-01
         52   -1    0    0    0    0  0.00000000000E+00  0.00000000000E+00  0.64930732323E+04  0.65000000000E+04  0.30000000000E+03 0.  1.
        -52   -1    0    0    0    0 -0.00000000000E+00 -0.00000000000E+00 -0.64930732323E+04  0.65000000000E+04  0.30000000000E+03 0. -1.
     100001    1    1    2    0    0 -0.22892177832E+04 -0.14308211154E+04  0.59109713776E+04  0.65000000000E+04  0.15050000000E+03 0.  1.
     100001    1    1    2    0    0  0.22892177832E+04  0.14308211154E+04 -0.59109713776E+04  0.65000000000E+04  0.15050000000E+03 0. -1.
</event>
<event>
 4    1  0.5640637E-004  0.6500000E+04  0.7818608E-02  0.7223770E-01
         52   -1    0    0    0    0  0.00000000000E+00  0.00000000000E+00  0.64930732323E+04  0.65000000000E+04  0.30000000000E+03 0.  1.
        -52   -1    0    0    0    0 -0.00000000000E+00 -0.00000000000E+00 -0.64930732323E+04  0.65000000000E+04  0.30000000000E+03 0.  1.
     100001    1    1    2    0    0 -0.32716516722E+03  0.40314511611E+03  0.64774830543E+04  0.65000000000E+04  0.15050000000E+03 0.  1.
     100001    1    1    2    0    0  0.32716516722E+03 -0.40314511611E+03 -0.64774830543E+04  0.65000000000E+04  0.15050000000E+03 0.  1.
</event>
<event>
 4    1  0.5640637E-004  0.6500000E+04  0.7818608E-02  0.7223770E-01
         52   -1    0    0    0    0  0.00000000000E+00  0.00000000000E+00  0.64930732323E+04  0.65000000000E+04  0.30000000000E+03 0. -1.
        -52   -1    0    0    0    0 -0.00000000000E+00 -0.00000000000E+00 -0.64930732323E+04  0.65000000000E+04  0.30000000000E+03 0.  1.
     100001    1    1    2    0    0 -0.46732806084E+03 -0.19401957582E+03 -0.64785268879E+04  0.65000000000E+04  0.15050000000E+03 0.  1.
     100001    1    1    2    0    0  0.46732806084E+03  0.19401957582E+03  0.64785268879E+04  0.65000000000E+04  0.15050000000E+03 0. -1.
</event>
<event>
 4    1  0.5640637E-004  0.6500000E+04  0.7818608E-02  0.7223770E-01
         52   -1    0    0    0    0  0.00000000000E+00  0.00000000000E+00  0.64930732323E+04  0.65000000000E+04  0.30000000000E+03 0. -1.
        -52   -1    0    0    0    0 -0.00000000000E+00 -0.00000000000E+00 -0.64930732323E+04  0.65000000000E+04  0.30000000000E+03 0.  1.
     100001    1    1    2    0    0  0.41531526393E+02 -0.35749278283E+03 -0.64882835783E+04  0.65000000000E+04  0.15050000000E+03 0.  1.
     100001    1    1    2    0    0 -0.41531526393E+02  0.35749278283E+03  0.64882835783E+04  0.65000000000E+04  0.15050000000E+03 0. -1.
</event>
<event>
 4    1  0.5640637E-004  0.6500000E+04  0.7818608E-02  0.7223770E-01
         52   -1    0    0    0    0  0.00000000000E+00  0.00000000000E+00  0.64930732323E+04  0.65000000000E+04  0.30000000000E+03 0.  1.
        -52   -1    0    0    0    0 -0.00000000000E+00 -0.00000000000E+00 -0.64930732323E+04  0.65000000000E+04  0.30000000000E+03 0.  1.
     100001    1    1    2    0    0  0.12816521485E+03 -0.85807281000E+03 -0.64400803163E+04  0.65000000000E+04  0.15050000000E+03 0.  1.
     100001    1    1    2    0    0 -0.12816521485E+03  0.85807281000E+03  0.64400803163E+04  0.65000000000E+04  0.15050000000E+03 0.  1.
</event>
<event>
 4    1  0.5640637E-004  0.6500000E+04  0.7818608E-02  0.7223770E-01
         52   -1    0    0    0    0  0.00000000000E+00  0.00000000000E+00  0.64930732323E+04  0.65000000000E+04  0.30000000000E+03 0. -1.
        -52   -1    0    0    0    0 -0.00000000000E+00 -0.00000000000E+00 -0.64930732323E+04  0.65000000000E+04  0.30000000000E+03 0. -1.
     100001    1    1    2    0    0 -0.33183015914E+02  0.51614179882E+03  0.64776420309E+04  0.65000000000E+04  0.15050000000E+03 0. -1.
     100001    1    1    2    0    0  0.33183015914E+02 -0.51614179882E+03 -0.64776420309E+04  0.65000000000E+04  0.15050000000E+03 0. -1.
</event>
<event>
 4    1  0.5640637E-004  0.6500000E+04  0.7818608E-02  0.7223770E-01
         52   -1    0    0    0    0  0.00000000000E+00  0.00000000000E+00  0.64930732323E+04  0.65000000000E+04  0.30000000000E+03 0. -1.
        -52   -1    0    0    0    0 -0.00000000000E+00 -0.00000000000E+00 -0.64930732323E+04  0.65000000000E+04  0.30000000000E+03 0.  1.
     100001    1    1    2    0    0  0.41650219404E+03  0.17737222959E+03  0.64824698044E+04  0.65000000000E+04  0.15050000000E+03 0. -1.
     100001    1    1    2    0    0 -0.41650219404E+03 -0.17737222959E+03 -0.64824698044E+04  0.65000000000E+04  0.15050000000E+03 0.  1.
</event>
<event>
 4    1  0.5640637E-004  0.6500000E+04  0.7818608E-02  0.7223770E-01
         52   -1    0    0    0    0  0.00000000000E+00  0.00000000000E+00  0.64930732323E+04  0.65000000000E+04  0.30000000000E+03 0.  1.
        -52   -1    0    0    0    0 -0.00000000000E+00 -0.00000000000E+00 -0.64930732323E+04  0.65000000000E+04  0.30000000000E+03 0. -1.
     100001    1    1    2    0    0  0.54625307041E+04 -0.11985385178E+04 -0.33093222083E+04  0.65000000000E+04  0.15050000000E+03 0. -1.
     100001    1    1    2    0    0 -0.54625307041E+04  0.11985385178E+04  0.33093222083E+04  0.65000000000E+04  0.15050000000E+03 0.  1.
</event>
<event>
 4    1  0.5640637E-004  0.6500000E+04  0.7818608E-02  0.7223770E-01
         52   -1    0    0    0    0  0.00000000000E+00  0.00000000000E+00  0.64930732323E+04  0.65000000000E+04  0.30000000000E+03 0. -1.
        -52   -1    0    0    0    0 -0.00000000000E+00 -0.00000000000E+00 -0.64930732323E+04  0.65000000000E+04  0.30000000000E+03 0.  1.
     100001    1    1    2    0    0 -0.12003745213E+04 -0.53389528295E+04  0.35045732184E+04  0.65000000000E+04  0.15050000000E+03 0. -1.
     100001    1    1    2    0    0  0.12003745213E+04  0.53389528295E+04 -0.35045732184E+04  0.65000000000E+04  0.15050000000E+03 0.  1.
</event>
<event>
 4    1  0.5640637E-004  0.6500000E+04  0.7818608E-02  0.7223770E-01
         52   -1    0    0    0    0  0.00000000000E+00  0.00000000000E+00  0.64930732323E+04  0.65000000000E+04  0.30000000000E+03 0.  1.
        -52   -1    0    0    0    0 -0.00000000000E+00 -0.00000000000E+00 -0.64930732323E+04  0.65000000000E+04  0.30000000000E+03 0. -1.
     100001    1    1    2    0    0 -0.37620866718E+03  0.51118161072E+03 -0.64671871899E+04  0.65000000000E+04  0.15050000000E+03 0. -1.
     100001    1    1    2    0    0  0.37620866718E+03 -0.51118161072E+03  0.64671871899E+04  0.65000000000E+04  0.15050000000E+03 0.  1.
</event>
<event>
 4    1  0.6246495E-004  0.6500000E+04  0.7818608E-02  0.7223770E-01
         52   -1    0    0    0    0  0.00000000000E+00  0.00000000000E+00  0.64930732323E+04  0.65000000000E+04  0.30000000000E+03 0. -1.
        -52   -1    0    0    0    0 -0.00000000000E+00 -0.00000000000E+00 -0.64930732323E+04  0.65000000000E+04  0.30000000000E+03 0. -1.
     100001    1    1    2    0    0  0.19657447565E+03  0.10732086922E+03 -0.64943968509E+04  0.65000000000E+04  0.15050000000E+03 0. -1.
     100001    1    1    2    0    0 -0.19657447565E+03 -0.10732086922E+03  0.64943968509E+04  0.65000000000E+04  0.15050000000E+03 0. -1.
</event>
<event>
 4    1  0.5640637E-004  0.6500000E+04  0.7818608E-02  0.7223770E-01
         52   -1    0    0    0    0  0.00000000000E+00  0.00000000000E+00  0.64930732323E+04  0.65000000000E+04  0.30000000000E+03 0. -1.
        -52   -1    0    0    0    0 -0.00000000000E+00 -0.00000000000E+00 -0.64930732323E+04  0.65000000000E+04  0.30000000000E+03 0.  1.
     100001    1    1    2    0    0  0.30424161610E+03  0.13022871474E+04  0.63591536367E+04  0.65000000000E+04  0.15050000000E+03 0. -1.
     100001    1    1    2    0    0 -0.30424161610E+03 -0.13022871474E+04 -0.63591536367E+04  0.65000000000E+04  0.15050000000E+03 0.  1.
</event>
<event>
 4    1  0.5640637E-004  0.6500000E+04  0.7818608E-02  0.7223770E-01
         52   -1    0    0    0    0  0.00000000000E+00  0.00000000000E+00  0.64930732323E+04  0.65000000000E+04  0.30000000000E+03 0. -1.
        -52   -1    0    0    0    0 -0.00000000000E+00 -0.00000000000E+00 -0.64930732323E+04  0.65000000000E+04  0.30000000000E+03 0.  1.
     100001    1    1    2    0    0 -0.40448963098E+04 -0.19442791063E+04 -0.46995683153E+04  0.65000000000E+04  0.15050000000E+03 0.  1.
     100001    1    1    2    0    0  0.40448963098E+04  0.19442791063E+04  0.46995683153E+04  0.65000000000E+04  0.15050000000E+03 0. -1.
</event>
<event>
 4    1  0.5640637E-004  0.6500000E+04  0.7818608E-02  0.7223770E-01
         52   -1    0    0    0    0  0.00000000000E+00  0.00000000000E+00  0.64930732323E+04  0.65000000000E+04  0.30000000000E+03 0.  1.
        -52   -1    0    0    0    0 -0.00000000000E+00 -0.00000000000E+00 -0.64930732323E+04  0.65000000000E+04  0.30000000000E+03 0. -1.
     100001    1    1    2    0    0  0.23442282397E+03 -0.35481166698E+04  0.54390498974E+04  0.65000000000E+04  0.15050000000E+03 0.  1.
     100001    1    1    2    0    0 -0.23442282397E+03  0.35481166698E+04 -0.54390498974E+04  0.65000000000E+04  0.15050000000E+03 0. -1.
</event>
<event>
 4    1  0.5640637E-004  0.6500000E+04  0.7818608E-02  0.7223770E-01
         52   -1    0    0    0    0  0.00000000000E+00  0.00000000000E+00  0.64930732323E+04  0.65000000000E+04  0.30000000000E+03 0.  1.
        -52   -1    0    0    0    0 -0.00000000000E+00 -0.00000000000E+00 -0.64930732323E+04  0.65000000000E+04  0.30000000000E+03 0.  1.
     100001    1    1    2    0    0  0.93366684242E+02  0.65135339858E+02 -0.64972601764E+04  0.65000000000E+04  0.15050000000E+03 0.  1.
     100001    1    1    2    0    0 -0.93366684242E+02 -0.65135339858E+02  0.64972601764E+04  0.65000000000E+04  0.15050000000E+03 0.  1.
</event>
<event>
 4    1  0.5640637E-004  0.6500000E+04  0.7818608E-02  0.7223770E-01
         52   -1    0    0    0    0  0.00000000000E+00  0.00000000000E+00  0.64930732323E+04  0.65000000000E+04  0.30000000000E+03 0. -1.
        -52   -1    0    0    0    0 -0.00000000000E+00 -0.00000000000E+00 -0.64930732323E+04  0.65000000000E+04  0.30000000000E+03 0.  1.
     100001    1    1    2    0    0  0.45872273763E+04 -0.87147835877E+03 -0.45194269790E+04  0.65000000000E+04  0.15050000000E+03 0.  1.
     100001    1    1    2    0    0 -0.45872273763E+04  0.87147835877E+03  0.45194269790E+04  0.65000000000E+04  0.15050000000E+03 0. -1.
</event>
<event>
 4    1  0.5640637E-004  0.6500000E+04  0.7818608E-02  0.7223770E-01
         52   -1    0    0    0    0  0.00000000000E+00  0.00000000000E+00  0.64930732323E+04  0.65000000000E+04  0.30000000000E+03 0.  1.
        -52   -1    0    0    0    0 -0.00000000000E+00 -0.00000000000E+00 -0.64930732323E+04  0.65000000000E+04  0.30000000000E+03 0. -1.
     100001    1    1    2    0    0  0.13364476947E+04 -0.11460611806E+03 -0.63583113125E+04  0.65000000000E+04  0.15050000000E+03 0. -1.
     100001    1    1    2    0    0 -0.13364476947E+04  0.11460611806E+03  0.63583113125E+04  0.65000000000E+04  0.15050000000E+03 0.  1.
</event>
<event>
 4    1  0.5961460E-004  0.6500000E+04  0.7818608E-02  0.7223770E-01
         52   -1    0    0    0    0  0.00000000000E+00  0.00000000000E+00  0.64930732323E+04  0.65000000000E+04  0.30000000000E+03 0. -1.
        -52   -1    0    0    0    0 -0.00000000000E+00 -0.00000000000E+00 -0.64930732323E+04  0.65000000000E+04  0.30000000000E+03 0. -1.
     100001    1    1    2    0    0  0.30835707441E+02 -0.24278607334E+03  0.64936471903E+04  0.65000000000E+04  0.15050000000E+03 0. -1.
     100001    1    1    2    0    0 -0.30835707441E+02  0.24278607334E+03 -0.64936471903E+04  0.65000000000E+04  0.15050000000E+03 0. -1.
</event>
<event>
 4    1  0.5640637E-004  0.6500000E+04  0.7818608E-02  0.7223770E-01
         52   -1    0    0    0    0  0.00000000000E+00  0.00000000000E+00  0.64930732323E+04  0.65000000000E+04  0.30000000000E+03 0. -1.
        -52   -1    0    0    0    0 -0.00000000000E+00 -0.00000000000E+00 -0.64930732323E+04  0.65000000000E+04  0.30000000000E+03 0.  1.
     100001    1    1    2    0    0  0.42408108914E+03  0.12667738875E+04  0.63594645135E+04  0.65000000000E+04  0.15050000000E+03 0. -1.
     100001    1    1    2    0    0 -0.42408108914E+03 -0.12667738875E+04 -0.63594645135E+04  0.65000000000E+04  0.15050000000E+03 0.  1.
</event>
<event>
 4    1  0.5640637E-004  0.6500000E+04  0.7818608E-02  0.7223770E-01
         52   -1    0    0    0    0  0.00000000000E+00  0.00000000000E+00  0.64930732323E+04  0.65000000000E+04  0.30000000000E+03 0. -1.
        -52   -1    0    0    0    0 -0.00000000000E+00 -0.00000000000E+00 -0.64930732323E+04  0.65000000000E+04  0.30000000000E+03 0.  1.
     100001    1    1    2    0    0  0.55973408273E+02 -0.11399536165E+04 -0.63972433500E+04  0.65000000000E+04  0.15050000000E+03 0.  1.
     100001    1    1    2    0    0 -0.55973408273E+02  0.11399536165E+04  0.63972433500E+04  0.65000000000E+04  0.15050000000E+03 0. -1.
</event>
<event>
 4    1  0.5640637E-004  0.6500000E+04  0.7818608E-02  0.7223770E-01
         52   -1    0    0    0    0  0.00000000000E+00  0.00000000000E+00  0.64930732323E+04  0.65000000000E+04  0.30000000000E+03 0.  1.
        -52   -1    0    0    0    0 -0.00000000000E+00 -0.00000000000E+00 -0.64930732323E+04  0.65000000000E+04  0.30000000000E+03 0. -1.
     100001    1    1    2    0    0  0.22923049751E+04  0.15010113416E+04  0.58923384665E+04  0.65000000000E+04  0.15050000000E+03 0.  1.
     100001    1    1    2    0    0 -0.22923049751E+04 -0.15010113416E+04 -0.58923384665E+04  0.65000000000E+04  0.15050000000E+03 0. -1.
</event>
<event>
 4    1  0.5640637E-004  0.6500000E+04  0.7818608E-02  0.7223770E-01
         52   -1    0    0    0    0  0.00000000000E+00  0.00000000000E+00  0.64930732323E+04  0.65000000000E+04  0.30000000000E+03 0.  1.
        -52   -1    0    0    0    0 -0.00000000000E+00 -0.00000000000E+00 -0.64930732323E+04  0.65000000000E+04  0.30000000000E+03 0.  1.
     100001    1    1    2    0    0  0.11363457835E+03 -0.22057315840E+03  0.64935186467E+04  0.65000000000E+04  0.15050000000E+03 0.  1.
     100001    1    1    2    0    0 -0.11363457835E+03  0.22057315840E+03 -0.64935186467E+04  0.65000000000E+04  0.15050000000E+03 0.  1.
</event>
<event>
 4    1  0.5640637E-004  0.6500000E+04  0.7818608E-02  0.7223770E-01
         52   -1    0    0    0    0  0.00000000000E+00  0.00000000000E+00  0.64930732323E+04  0.65000000000E+04  0.30000000000E+03 0.  1.
        -52   -1    0    0    0    0 -0.00000000000E+00 -0.00000000000E+00 -0.64930732323E+04  0.65000000000E+04  0.30000000000E+03 0. -1.
     100001    1    1    2    0    0 -0.27145793444E+03  0.39246498537E+03 -0.64807122737E+04  0.65000000000E+04  0.15050000000E+03 0. -1.
     100001    1    1    2    0    0  0.27145793444E+03 -0.39246498537E+03  0.64807122737E+04  0.65000000000E+04  0.15050000000E+03 0.  1.
</event>
<event>
 4    1  0.5640637E-004  0.6500000E+04  0.7818608E-02  0.7223770E-01
         52   -1    0    0    0    0  0.00000000000E+00  0.00000000000E+00  0.64930732323E+04  0.65000000000E+04  0.30000000000E+03 0. -1.
        -52   -1    0    0    0    0 -0.00000000000E+00 -0.00000000000E+00 -0.64930732323E+04  0.65000000000E+04  0.30000000000E+03 0.  1.
     100001    1    1    2    0    0 -0.20262101690E+04  0.18335202539E+04 -0.58957633585E+04  0.65000000000E+04  0.15050000000E+03 0.  1.
     100001    1    1    2    0    0  0.20262101690E+04 -0.18335202539E+04  0.58957633585E+04  0.65000000000E+04  0.15050000000E+03 0. -1.
</event>
<event>
 4    1  0.5640637E-004  0.6500000E+04  0.7818608E-02  0.7223770E-01
         52   -1    0    0    0    0  0.00000000000E+00  0.00000000000E+00  0.64930732323E+04  0.65000000000E+04  0.30000000000E+03 0. -1.
        -52   -1    0    0    0    0 -0.00000000000E+00 -0.00000000000E+00 -0.64930732323E+04  0.65000000000E+04  0.30000000000E+03 0.  1.
     100001    1    1    2    0    0 -0.15463413203E+03 -0.61692524660E+04  0.20356232575E+04  0.65000000000E+04  0.15050000000E+03 0. -1.
     100001    1    1    2    0    0  0.15463413203E+03  0.61692524660E+04 -0.20356232575E+04  0.65000000000E+04  0.15050000000E+03 0.  1.
</event>
<event>
 4    1  0.5640637E-004  0.6500000E+04  0.7818608E-02  0.7223770E-01
         52   -1    0    0    0    0  0.00000000000E+00  0.00000000000E+00  0.64930732323E+04  0.65000000000E+04  0.30000000000E+03 0.  1.
        -52   -1    0    0    0    0 -0.00000000000E+00 -0.00000000000E+00 -0.64930732323E+04  0.65000000000E+04  0.30000000000E+03 0. -1.
     100001    1    1    2    0    0  0.14333493002E+04  0.25129515294E+03  0.63332227404E+04  0.65000000000E+04  0.15050000000E+03 0.  1.
     100001    1    1    2    0    0 -0.14333493002E+04 -0.25129515294E+03 -0.63332227404E+04  0.65000000000E+04  0.15050000000E+03 0. -1.
</event>
<event>
 4    1  0.5640637E-004  0.6500000E+04  0.7818608E-02  0.7223770E-01
         52   -1    0    0    0    0  0.00000000000E+00  0.00000000000E+00  0.64930732323E+04  0.65000000000E+04  0.30000000000E+03 0. -1.
        -52   -1    0    0    0    0 -0.00000000000E+00 -0.00000000000E+00 -0.64930732323E+04  0.65000000000E+04  0.30000000000E+03 0.  1.
     100001    1    1    2    0    0 -0.24804754669E+03 -0.17796503823E+04 -0.62448912466E+04  0.65000000000E+04  0.15050000000E+03 0.  1.
     100001    1    1    2    0    0  0.24804754669E+03  0.17796503823E+04  0.62448912466E+04  0.65000000000E+04  0.15050000000E+03 0. -1.
</event>
<event>
 4    1  0.5640637E-004  0.6500000E+04  0.7818608E-02  0.7223770E-01
         52   -1    0    0    0    0  0.00000000000E+00  0.00000000000E+00  0.64930732323E+04  0.65000000000E+04  0.30000000000E+03 0.  1.
        -52   -1    0    0    0    0 -0.00000000000E+00 -0.00000000000E+00 -0.64930732323E+04  0.65000000000E+04  0.30000000000E+03 0. -1.
     100001    1    1    2    0    0  0.74902946941E+03 -0.19874061040E+04 -0.61413778244E+04  0.65000000000E+04  0.15050000000E+03 0. -1.
     100001    1    1    2    0    0 -0.74902946941E+03  0.19874061040E+04  0.61413778244E+04  0.65000000000E+04  0.15050000000E+03 0.  1.
</event>
<event>
 4    1  0.5640637E-004  0.6500000E+04  0.7818608E-02  0.7223770E-01
         52   -1    0    0    0    0  0.00000000000E+00  0.00000000000E+00  0.64930732323E+04  0.65000000000E+04  0.30000000000E+03 0.  1.
        -52   -1    0    0    0    0 -0.00000000000E+00 -0.00000000000E+00 -0.64930732323E+04  0.65000000000E+04  0.30000000000E+03 0.  1.
     100001    1    1    2    0    0 -0.19071563203E+03  0.10003992494E+03 -0.64946877763E+04  0.65000000000E+04  0.15050000000E+03 0.  1.
     100001    1    1    2    0    0  0.19071563203E+03 -0.10003992494E+03  0.64946877763E+04  0.65000000000E+04  0.15050000000E+03 0.  1.
</event>
<event>
 4    1  0.5640637E-004  0.6500000E+04  0.7818608E-02  0.7223770E-01
         52   -1    0    0    0    0  0.00000000000E+00  0.00000000000E+00  0.64930732323E+04  0.65000000000E+04  0.30000000000E+03 0.  1.
        -52   -1    0    0    0    0 -0.00000000000E+00 -0.00000000000E+00 -0.64930732323E+04  0.65000000000E+04  0.30000000000E+03 0. -1.
     100001    1    1    2    0    0 -0.37167200668E+04  0.37127548281E+04  0.38247605521E+04  0.65000000000E+04  0.15050000000E+03 0.  1.
     100001    1    1    2    0    0  0.37167200668E+04 -0.37127548281E+04 -0.38247605521E+04  0.65000000000E+04  0.15050000000E+03 0. -1.
</event>
<event>
 4    1  0.5640637E-004  0.6500000E+04  0.7818608E-02  0.7223770E-01
         52   -1    0    0    0    0  0.00000000000E+00  0.00000000000E+00  0.64930732323E+04  0.65000000000E+04  0.30000000000E+03 0. -1.
        -52   -1    0    0    0    0 -0.00000000000E+00 -0.00000000000E+00 -0.64930732323E+04  0.65000000000E+04  0.30000000000E+03 0.  1.
     100001    1    1    2    0    0  0.36670524112E+04 -0.50873678457E+04 -0.17025759206E+04  0.65000000000E+04  0.15050000000E+03 0.  1.
     100001    1    1    2    0    0 -0.36670524112E+04  0.50873678457E+04  0.17025759206E+04  0.65000000000E+04  0.15050000000E+03 0. -1.
</event>
<event>
 4    1  0.5640637E-004  0.6500000E+04  0.7818608E-02  0.7223770E-01
         52   -1    0    0    0    0  0.00000000000E+00  0.00000000000E+00  0.64930732323E+04  0.65000000000E+04  0.30000000000E+03 0. -1.
        -52   -1    0    0    0    0 -0.00000000000E+00 -0.00000000000E+00 -0.64930732323E+04  0.65000000000E+04  0.30000000000E+03 0. -1.
     100001    1    1    2    0    0 -0.31922405242E+03  0.20631304885E+03 -0.64871319302E+04  0.65000000000E+04  0.15050000000E+03 0. -1.
     100001    1    1    2    0    0  0.31922405242E+03 -0.20631304885E+03  0.64871319302E+04  0.65000000000E+04  0.15050000000E+03 0. -1.
</event>
<event>
 4    1  0.5640637E-004  0.6500000E+04  0.7818608E-02  0.7223770E-01
         52   -1    0    0    0    0  0.00000000000E+00  0.00000000000E+00  0.64930732323E+04  0.65000000000E+04  0.30000000000E+03 0.  1.
        -52   -1    0    0    0    0 -0.00000000000E+00 -0.00000000000E+00 -0.64930732323E+04  0.65000000000E+04  0.30000000000E+03 0. -1.
     100001    1    1    2    0    0 -0.37478851677E+04  0.44183319146E+04 -0.29426263120E+04  0.65000000000E+04  0.15050000000E+03 0. -1.
     100001    1    1    2    0    0  0.37478851677E+04 -0.44183319146E+04  0.29426263120E+04  0.65000000000E+04  0.15050000000E+03 0.  1.
</event>
<event>
 4    1  0.5640637E-004  0.6500000E+04  0.7818608E-02  0.7223770E-01
         52   -1    0    0    0    0  0.00000000000E+00  0.00000000000E+00  0.64930732323E+04  0.65000000000E+04  0.30000000000E+03 0.  1.
        -52   -1    0    0    0    0 -0.00000000000E+00 -0.00000000000E+00 -0.64930732323E+04  0.65000000000E+04  0.30000000000E+03 0. -1.
     100001    1    1    2    0    0 -0.62213209787E+03 -0.71386694631E+03  0.64288953472E+04  0.65000000000E+04  0.15050000000E+03 0.  1.
     100001    1    1    2    0    0  0.62213209787E+03  0.71386694631E+03 -0.64288953472E+04  0.65000000000E+04  0.15050000000E+03 0. -1.
</event>
<event>
 4    1  0.5640637E-004  0.6500000E+04  0.7818608E-02  0.7223770E-01
         52   -1    0    0    0    0  0.00000000000E+00  0.00000000000E+00  0.64930732323E+04  0.65000000000E+04  0.30000000000E+03 0.  1.
        -52   -1    0    0    0    0 -0.00000000000E+00 -0.00000000000E+00 -0.64930732323E+04  0.65000000000E+04  0.30000000000E+03 0. -1.
     100001    1    1    2    0    0 -0.47300472386E+03  0.18424965507E+04 -0.62135998215E+04  0.65000000000E+04  0.15050000000E+03 0. -1.
     100001    1    1    2    0    0  0.47300472386E+03 -0.18424965507E+04  0.62135998215E+04  0.65000000000E+04  0.15050000000E+03 0.  1.
</event>
<event>
 4    1  0.5640637E-004  0.6500000E+04  0.7818608E-02  0.7223770E-01
         52   -1    0    0    0    0  0.00000000000E+00  0.00000000000E+00  0.64930732323E+04  0.65000000000E+04  0.30000000000E+03 0.  1.
        -52   -1    0    0    0    0 -0.00000000000E+00 -0.00000000000E+00 -0.64930732323E+04  0.65000000000E+04  0.30000000000E+03 0. -1.
     100001    1    1    2    0    0 -0.14943130974E+04  0.85979335075E+03 -0.62653917284E+04  0.65000000000E+04  0.15050000000E+03 0. -1.
     100001    1    1    2    0    0  0.14943130974E+04 -0.85979335075E+03  0.62653917284E+04  0.65000000000E+04  0.15050000000E+03 0.  1.
</event>
<event>
 4    1  0.5640637E-004  0.6500000E+04  0.7818608E-02  0.7223770E-01
         52   -1    0    0    0    0  0.00000000000E+00  0.00000000000E+00  0.64930732323E+04  0.65000000000E+04  0.30000000000E+03 0.  1.
        -52   -1    0    0    0    0 -0.00000000000E+00 -0.00000000000E+00 -0.64930732323E+04  0.65000000000E+04  0.30000000000E+03 0. -1.
     100001    1    1    2    0    0  0.54917327649E+03 -0.11528556063E+04  0.63715525905E+04  0.65000000000E+04  0.15050000000E+03 0.  1.
     100001    1    1    2    0    0 -0.54917327649E+03  0.11528556063E+04 -0.63715525905E+04  0.65000000000E+04  0.15050000000E+03 0. -1.
</event>
<event>
 4    1  0.5640637E-004  0.6500000E+04  0.7818608E-02  0.7223770E-01
         52   -1    0    0    0    0  0.00000000000E+00  0.00000000000E+00  0.64930732323E+04  0.65000000000E+04  0.30000000000E+03 0.  1.
        -52   -1    0    0    0    0 -0.00000000000E+00 -0.00000000000E+00 -0.64930732323E+04  0.65000000000E+04  0.30000000000E+03 0. -1.
     100001    1    1    2    0    0  0.14694260178E+04 -0.15296892333E+04  0.61423275538E+04  0.65000000000E+04  0.15050000000E+03 0.  1.
     100001    1    1    2    0    0 -0.14694260178E+04  0.15296892333E+04 -0.61423275538E+04  0.65000000000E+04  0.15050000000E+03 0. -1.
</event>
<event>
 4    1  0.5640637E-004  0.6500000E+04  0.7818608E-02  0.7223770E-01
         52   -1    0    0    0    0  0.00000000000E+00  0.00000000000E+00  0.64930732323E+04  0.65000000000E+04  0.30000000000E+03 0. -1.
        -52   -1    0    0    0    0 -0.00000000000E+00 -0.00000000000E+00 -0.64930732323E+04  0.65000000000E+04  0.30000000000E+03 0.  1.
     100001    1    1    2    0    0 -0.16844556004E+04  0.12898275888E+04 -0.61421741974E+04  0.65000000000E+04  0.15050000000E+03 0.  1.
     100001    1    1    2    0    0  0.16844556004E+04 -0.12898275888E+04  0.61421741974E+04  0.65000000000E+04  0.15050000000E+03 0. -1.
</event>
<event>
 4    1  0.5640637E-004  0.6500000E+04  0.7818608E-02  0.7223770E-01
         52   -1    0    0    0    0  0.00000000000E+00  0.00000000000E+00  0.64930732323E+04  0.65000000000E+04  0.30000000000E+03 0.  1.
        -52   -1    0    0    0    0 -0.00000000000E+00 -0.00000000000E+00 -0.64930732323E+04  0.65000000000E+04  0.30000000000E+03 0. -1.
     100001    1    1    2    0    0 -0.37033320001E+04  0.31414323439E+04 -0.43178796504E+04  0.65000000000E+04  0.15050000000E+03 0. -1.
     100001    1    1    2    0    0  0.37033320001E+04 -0.31414323439E+04  0.43178796504E+04  0.65000000000E+04  0.15050000000E+03 0.  1.
</event>
<event>
 4    1  0.5640637E-004  0.6500000E+04  0.7818608E-02  0.7223770E-01
         52   -1    0    0    0    0  0.00000000000E+00  0.00000000000E+00  0.64930732323E+04  0.65000000000E+04  0.30000000000E+03 0.  1.
        -52   -1    0    0    0    0 -0.00000000000E+00 -0.00000000000E+00 -0.64930732323E+04  0.65000000000E+04  0.30000000000E+03 0. -1.
     100001    1    1    2    0    0 -0.19639122096E+04  0.24921175537E+04 -0.56709565932E+04  0.65000000000E+04  0.15050000000E+03 0. -1.
     100001    1    1    2    0    0  0.19639122096E+04 -0.24921175537E+04  0.56709565932E+04  0.65000000000E+04  0.15050000000E+03 0.  1.
</event>
<event>
 4    1  0.5640637E-004  0.6500000E+04  0.7818608E-02  0.7223770E-01
         52   -1    0    0    0    0  0.00000000000E+00  0.00000000000E+00  0.64930732323E+04  0.65000000000E+04  0.30000000000E+03 0. -1.
        -52   -1    0    0    0    0 -0.00000000000E+00 -0.00000000000E+00 -0.64930732323E+04  0.65000000000E+04  0.30000000000E+03 0.  1.
     100001    1    1    2    0    0 -0.20796848057E+03 -0.87394184708E+03  0.64358623749E+04  0.65000000000E+04  0.15050000000E+03 0. -1.
     100001    1    1    2    0    0  0.20796848057E+03  0.87394184708E+03 -0.64358623749E+04  0.65000000000E+04  0.15050000000E+03 0.  1.
</event>
<event>
 4    1  0.5640637E-004  0.6500000E+04  0.7818608E-02  0.7223770E-01
         52   -1    0    0    0    0  0.00000000000E+00  0.00000000000E+00  0.64930732323E+04  0.65000000000E+04  0.30000000000E+03 0.  1.
        -52   -1    0    0    0    0 -0.00000000000E+00 -0.00000000000E+00 -0.64930732323E+04  0.65000000000E+04  0.30000000000E+03 0. -1.
     100001    1    1    2    0    0  0.17996051286E+03  0.29687469376E+03  0.64889775296E+04  0.65000000000E+04  0.15050000000E+03 0.  1.
     100001    1    1    2    0    0 -0.17996051286E+03 -0.29687469376E+03 -0.64889775296E+04  0.65000000000E+04  0.15050000000E+03 0. -1.
</event>
<event>
 4    1  0.5640637E-004  0.6500000E+04  0.7818608E-02  0.7223770E-01
         52   -1    0    0    0    0  0.00000000000E+00  0.00000000000E+00  0.64930732323E+04  0.65000000000E+04  0.30000000000E+03 0.  1.
        -52   -1    0    0    0    0 -0.00000000000E+00 -0.00000000000E+00 -0.64930732323E+04  0.65000000000E+04  0.30000000000E+03 0. -1.
     100001    1    1    2    0    0 -0.41115580650E+04 -0.45019677180E+04  0.22482719352E+04  0.65000000000E+04  0.15050000000E+03 0.  1.
     100001    1    1    2    0    0  0.41115580650E+04  0.45019677180E+04 -0.22482719352E+04  0.65000000000E+04  0.15050000000E+03 0. -1.
</event>
<event>
 4    1  0.5640637E-004  0.6500000E+04  0.7818608E-02  0.7223770E-01
         52   -1    0    0    0    0  0.00000000000E+00  0.00000000000E+00  0.64930732323E+04  0.65000000000E+04  0.30000000000E+03 0.  1.
        -52   -1    0    0    0    0 -0.00000000000E+00 -0.00000000000E+00 -0.64930732323E+04  0.65000000000E+04  0.30000000000E+03 0. -1.
     100001    1    1    2    0    0  0.30078388282E+04  0.32573549080E+04  0.47507782875E+04  0.65000000000E+04  0.15050000000E+03 0.  1.
     100001    1    1    2    0    0 -0.30078388282E+04 -0.32573549080E+04 -0.47507782875E+04  0.65000000000E+04  0.15050000000E+03 0. -1.
</event>
<event>
 4    1  0.5640637E-004  0.6500000E+04  0.7818608E-02  0.7223770E-01
         52   -1    0    0    0    0  0.00000000000E+00  0.00000000000E+00  0.64930732323E+04  0.65000000000E+04  0.30000000000E+03 0. -1.
        -52   -1    0    0    0    0 -0.00000000000E+00 -0.00000000000E+00 -0.64930732323E+04  0.65000000000E+04  0.30000000000E+03 0.  1.
     100001    1    1    2    0    0 -0.56996114295E+02  0.17397838578E+04  0.62607709846E+04  0.65000000000E+04  0.15050000000E+03 0. -1.
     100001    1    1    2    0    0  0.56996114295E+02 -0.17397838578E+04 -0.62607709846E+04  0.65000000000E+04  0.15050000000E+03 0.  1.
</event>
<event>
 4    1  0.5640637E-004  0.6500000E+04  0.7818608E-02  0.7223770E-01
         52   -1    0    0    0    0  0.00000000000E+00  0.00000000000E+00  0.64930732323E+04  0.65000000000E+04  0.30000000000E+03 0.  1.
        -52   -1    0    0    0    0 -0.00000000000E+00 -0.00000000000E+00 -0.64930732323E+04  0.65000000000E+04  0.30000000000E+03 0.  1.
     100001    1    1    2    0    0  0.59312792237E+02  0.32746904728E+03  0.64897300226E+04  0.65000000000E+04  0.15050000000E+03 0.  1.
     100001    1    1    2    0    0 -0.59312792237E+02 -0.32746904728E+03 -0.64897300226E+04  0.65000000000E+04  0.15050000000E+03 0.  1.
</event>
<event>
 4    1  0.5640637E-004  0.6500000E+04  0.7818608E-02  0.7223770E-01
         52   -1    0    0    0    0  0.00000000000E+00  0.00000000000E+00  0.64930732323E+04  0.65000000000E+04  0.30000000000E+03 0.  1.
        -52   -1    0    0    0    0 -0.00000000000E+00 -0.00000000000E+00 -0.64930732323E+04  0.65000000000E+04  0.30000000000E+03 0. -1.
     100001    1    1    2    0    0 -0.37951010043E+03  0.17519179203E+03  0.64847998943E+04  0.65000000000E+04  0.15050000000E+03 0.  1.
     100001    1    1    2    0    0  0.37951010043E+03 -0.17519179203E+03 -0.64847998943E+04  0.65000000000E+04  0.15050000000E+03 0. -1.
</event>
<event>
 4    1  0.5640637E-004  0.6500000E+04  0.7818608E-02  0.7223770E-01
         52   -1    0    0    0    0  0.00000000000E+00  0.00000000000E+00  0.64930732323E+04  0.65000000000E+04  0.30000000000E+03 0. -1.
        -52   -1    0    0    0    0 -0.00000000000E+00 -0.00000000000E+00 -0.64930732323E+04  0.65000000000E+04  0.30000000000E+03 0.  1.
     100001    1    1    2    0    0 -0.29101587785E+04 -0.19095230660E+04  0.54874445140E+04  0.65000000000E+04  0.15050000000E+03 0. -1.
     100001    1    1    2    0    0  0.29101587785E+04  0.19095230660E+04 -0.54874445140E+04  0.65000000000E+04  0.15050000000E+03 0.  1.
</event>
<event>
 4    1  0.5640637E-004  0.6500000E+04  0.7818608E-02  0.7223770E-01
         52   -1    0    0    0    0  0.00000000000E+00  0.00000000000E+00  0.64930732323E+04  0.65000000000E+04  0.30000000000E+03 0.  1.
        -52   -1    0    0    0    0 -0.00000000000E+00 -0.00000000000E+00 -0.64930732323E+04  0.65000000000E+04  0.30000000000E+03 0. -1.
     100001    1    1    2    0    0 -0.83943879535E+03  0.53000221306E+02 -0.64435924169E+04  0.65000000000E+04  0.15050000000E+03 0. -1.
     100001    1    1    2    0    0  0.83943879535E+03 -0.53000221306E+02  0.64435924169E+04  0.65000000000E+04  0.15050000000E+03 0.  1.
</event>
<event>
 4    1  0.5640637E-004  0.6500000E+04  0.7818608E-02  0.7223770E-01
         52   -1    0    0    0    0  0.00000000000E+00  0.00000000000E+00  0.64930732323E+04  0.65000000000E+04  0.30000000000E+03 0.  1.
        -52   -1    0    0    0    0 -0.00000000000E+00 -0.00000000000E+00 -0.64930732323E+04  0.65000000000E+04  0.30000000000E+03 0. -1.
     100001    1    1    2    0    0  0.47352818415E+03  0.15620295826E+04  0.62899272167E+04  0.65000000000E+04  0.15050000000E+03 0.  1.
     100001    1    1    2    0    0 -0.47352818415E+03 -0.15620295826E+04 -0.62899272167E+04  0.65000000000E+04  0.15050000000E+03 0. -1.
</event>
<event>
 4    1  0.5640637E-004  0.6500000E+04  0.7818608E-02  0.7223770E-01
         52   -1    0    0    0    0  0.00000000000E+00  0.00000000000E+00  0.64930732323E+04  0.65000000000E+04  0.30000000000E+03 0.  1.
        -52   -1    0    0    0    0 -0.00000000000E+00 -0.00000000000E+00 -0.64930732323E+04  0.65000000000E+04  0.30000000000E+03 0. -1.
     100001    1    1    2    0    0  0.10091910909E+03  0.80051979747E+03  0.64479712420E+04  0.65000000000E+04  0.15050000000E+03 0.  1.
     100001    1    1    2    0    0 -0.10091910909E+03 -0.80051979747E+03 -0.64479712420E+04  0.65000000000E+04  0.15050000000E+03 0. -1.
</event>
<event>
 4    1  0.5640637E-004  0.6500000E+04  0.7818608E-02  0.7223770E-01
         52   -1    0    0    0    0  0.00000000000E+00  0.00000000000E+00  0.64930732323E+04  0.65000000000E+04  0.30000000000E+03 0.  1.
        -52   -1    0    0    0    0 -0.00000000000E+00 -0.00000000000E+00 -0.64930732323E+04  0.65000000000E+04  0.30000000000E+03 0.  1.
     100001    1    1    2    0    0 -0.20571136299E+02  0.37576783057E+03  0.64873511633E+04  0.65000000000E+04  0.15050000000E+03 0.  1.
     100001    1    1    2    0    0  0.20571136299E+02 -0.37576783057E+03 -0.64873511633E+04  0.65000000000E+04  0.15050000000E+03 0.  1.
</event>
<event>
 4    1  0.5640637E-004  0.6500000E+04  0.7818608E-02  0.7223770E-01
         52   -1    0    0    0    0  0.00000000000E+00  0.00000000000E+00  0.64930732323E+04  0.65000000000E+04  0.30000000000E+03 0. -1.
        -52   -1    0    0    0    0 -0.00000000000E+00 -0.00000000000E+00 -0.64930732323E+04  0.65000000000E+04  0.30000000000E+03 0.  1.
     100001    1    1    2    0    0  0.11645046449E+04 -0.47429008120E+04 -0.42867435857E+04  0.65000000000E+04  0.15050000000E+03 0.  1.
     100001    1    1    2    0    0 -0.11645046449E+04  0.47429008120E+04  0.42867435857E+04  0.65000000000E+04  0.15050000000E+03 0. -1.
</event>
<event>
 4    1  0.5640637E-004  0.6500000E+04  0.7818608E-02  0.7223770E-01
         52   -1    0    0    0    0  0.00000000000E+00  0.00000000000E+00  0.64930732323E+04  0.65000000000E+04  0.30000000000E+03 0. -1.
        -52   -1    0    0    0    0 -0.00000000000E+00 -0.00000000000E+00 -0.64930732323E+04  0.65000000000E+04  0.30000000000E+03 0.  1.
     100001    1    1    2    0    0 -0.46882829731E+03 -0.30539229150E+03 -0.64741242903E+04  0.65000000000E+04  0.15050000000E+03 0.  1.
     100001    1    1    2    0    0  0.46882829731E+03  0.30539229150E+03  0.64741242903E+04  0.65000000000E+04  0.15050000000E+03 0. -1.
</event>
<event>
 4    1  0.5640637E-004  0.6500000E+04  0.7818608E-02  0.7223770E-01
         52   -1    0    0    0    0  0.00000000000E+00  0.00000000000E+00  0.64930732323E+04  0.65000000000E+04  0.30000000000E+03 0.  1.
        -52   -1    0    0    0    0 -0.00000000000E+00 -0.00000000000E+00 -0.64930732323E+04  0.65000000000E+04  0.30000000000E+03 0. -1.
     100001    1    1    2    0    0  0.12256599016E+04  0.14837639824E+04 -0.62067344071E+04  0.65000000000E+04  0.15050000000E+03 0. -1.
     100001    1    1    2    0    0 -0.12256599016E+04 -0.14837639824E+04  0.62067344071E+04  0.65000000000E+04  0.15050000000E+03 0.  1.
</event>
<event>
 4    1  0.5640637E-004  0.6500000E+04  0.7818608E-02  0.7223770E-01
         52   -1    0    0    0    0  0.00000000000E+00  0.00000000000E+00  0.64930732323E+04  0.65000000000E+04  0.30000000000E+03 0.  1.
        -52   -1    0    0    0    0 -0.00000000000E+00 -0.00000000000E+00 -0.64930732323E+04  0.65000000000E+04  0.30000000000E+03 0. -1.
     100001    1    1    2    0    0 -0.91583092579E+03 -0.21113467390E+04  0.60770731782E+04  0.65000000000E+04  0.15050000000E+03 0.  1.
     100001    1    1    2    0    0  0.91583092579E+03  0.21113467390E+04 -0.60770731782E+04  0.65000000000E+04  0.15050000000E+03 0. -1.
</event>
<event>
 4    1  0.5640637E-004  0.6500000E+04  0.7818608E-02  0.7223770E-01
         52   -1    0    0    0    0  0.00000000000E+00  0.00000000000E+00  0.64930732323E+04  0.65000000000E+04  0.30000000000E+03 0. -1.
        -52   -1    0    0    0    0 -0.00000000000E+00 -0.00000000000E+00 -0.64930732323E+04  0.65000000000E+04  0.30000000000E+03 0.  1.
     100001    1    1    2    0    0  0.17924877643E+04  0.14339429764E+04  0.60793210892E+04  0.65000000000E+04  0.15050000000E+03 0. -1.
     100001    1    1    2    0    0 -0.17924877643E+04 -0.14339429764E+04 -0.60793210892E+04  0.65000000000E+04  0.15050000000E+03 0.  1.
</event>
<event>
 4    1  0.5640637E-004  0.6500000E+04  0.7818608E-02  0.7223770E-01
         52   -1    0    0    0    0  0.00000000000E+00  0.00000000000E+00  0.64930732323E+04  0.65000000000E+04  0.30000000000E+03 0.  1.
        -52   -1    0    0    0    0 -0.00000000000E+00 -0.00000000000E+00 -0.64930732323E+04  0.65000000000E+04  0.30000000000E+03 0. -1.
     100001    1    1    2    0    0  0.16650156188E+04 -0.10513368088E+04 -0.61927185996E+04  0.65000000000E+04  0.15050000000E+03 0. -1.
     100001    1    1    2    0    0 -0.16650156188E+04  0.10513368088E+04  0.61927185996E+04  0.65000000000E+04  0.15050000000E+03 0.  1.
</event>
<event>
 4    1  0.5640637E-004  0.6500000E+04  0.7818608E-02  0.7223770E-01
         52   -1    0    0    0    0  0.00000000000E+00  0.00000000000E+00  0.64930732323E+04  0.65000000000E+04  0.30000000000E+03 0. -1.
        -52   -1    0    0    0    0 -0.00000000000E+00 -0.00000000000E+00 -0.64930732323E+04  0.65000000000E+04  0.30000000000E+03 0.  1.
     100001    1    1    2    0    0  0.51674844364E+04  0.30019752077E+04  0.25519794674E+04  0.65000000000E+04  0.15050000000E+03 0. -1.
     100001    1    1    2    0    0 -0.51674844364E+04 -0.30019752077E+04 -0.25519794674E+04  0.65000000000E+04  0.15050000000E+03 0.  1.
</event>
<event>
 4    1  0.5640637E-004  0.6500000E+04  0.7818608E-02  0.7223770E-01
         52   -1    0    0    0    0  0.00000000000E+00  0.00000000000E+00  0.64930732323E+04  0.65000000000E+04  0.30000000000E+03 0. -1.
        -52   -1    0    0    0    0 -0.00000000000E+00 -0.00000000000E+00 -0.64930732323E+04  0.65000000000E+04  0.30000000000E+03 0.  1.
     100001    1    1    2    0    0  0.11858802976E+04  0.11279023556E+02 -0.63891243886E+04  0.65000000000E+04  0.15050000000E+03 0.  1.
     100001    1    1    2    0    0 -0.11858802976E+04 -0.11279023556E+02  0.63891243886E+04  0.65000000000E+04  0.15050000000E+03 0. -1.
</event>
<event>
 4    1  0.5640637E-004  0.6500000E+04  0.7818608E-02  0.7223770E-01
         52   -1    0    0    0    0  0.00000000000E+00  0.00000000000E+00  0.64930732323E+04  0.65000000000E+04  0.30000000000E+03 0.  1.
        -52   -1    0    0    0    0 -0.00000000000E+00 -0.00000000000E+00 -0.64930732323E+04  0.65000000000E+04  0.30000000000E+03 0. -1.
     100001    1    1    2    0    0  0.48643487722E+04  0.16641691818E+04  0.39744184111E+04  0.65000000000E+04  0.15050000000E+03 0.  1.
     100001    1    1    2    0    0 -0.48643487722E+04 -0.16641691818E+04 -0.39744184111E+04  0.65000000000E+04  0.15050000000E+03 0. -1.
</event>
<event>
 4    1  0.5640637E-004  0.6500000E+04  0.7818608E-02  0.7223770E-01
         52   -1    0    0    0    0  0.00000000000E+00  0.00000000000E+00  0.64930732323E+04  0.65000000000E+04  0.30000000000E+03 0.  1.
        -52   -1    0    0    0    0 -0.00000000000E+00 -0.00000000000E+00 -0.64930732323E+04  0.65000000000E+04  0.30000000000E+03 0. -1.
     100001    1    1    2    0    0  0.64066268947E+04  0.10061267064E+04  0.41254167404E+03  0.65000000000E+04  0.15050000000E+03 0. -1.
     100001    1    1    2    0    0 -0.64066268947E+04 -0.10061267064E+04 -0.41254167404E+03  0.65000000000E+04  0.15050000000E+03 0.  1.
</event>
<event>
 4    1  0.5640637E-004  0.6500000E+04  0.7818608E-02  0.7223770E-01
         52   -1    0    0    0    0  0.00000000000E+00  0.00000000000E+00  0.64930732323E+04  0.65000000000E+04  0.30000000000E+03 0.  1.
        -52   -1    0    0    0    0 -0.00000000000E+00 -0.00000000000E+00 -0.64930732323E+04  0.65000000000E+04  0.30000000000E+03 0. -1.
     100001    1    1    2    0    0  0.14661807465E+04 -0.15450110962E+04  0.61392674222E+04  0.65000000000E+04  0.15050000000E+03 0.  1.
     100001    1    1    2    0    0 -0.14661807465E+04  0.15450110962E+04 -0.61392674222E+04  0.65000000000E+04  0.15050000000E+03 0. -1.
</event>
<event>
 4    1  0.5640637E-004  0.6500000E+04  0.7818608E-02  0.7223770E-01
         52   -1    0    0    0    0  0.00000000000E+00  0.00000000000E+00  0.64930732323E+04  0.65000000000E+04  0.30000000000E+03 0.  1.
        -52   -1    0    0    0    0 -0.00000000000E+00 -0.00000000000E+00 -0.64930732323E+04  0.65000000000E+04  0.30000000000E+03 0. -1.
     100001    1    1    2    0    0 -0.20726127958E+04 -0.50530098106E+04 -0.35211813077E+04  0.65000000000E+04  0.15050000000E+03 0. -1.
     100001    1    1    2    0    0  0.20726127958E+04  0.50530098106E+04  0.35211813077E+04  0.65000000000E+04  0.15050000000E+03 0.  1.
</event>
<event>
 4    1  0.5640637E-004  0.6500000E+04  0.7818608E-02  0.7223770E-01
         52   -1    0    0    0    0  0.00000000000E+00  0.00000000000E+00  0.64930732323E+04  0.65000000000E+04  0.30000000000E+03 0. -1.
        -52   -1    0    0    0    0 -0.00000000000E+00 -0.00000000000E+00 -0.64930732323E+04  0.65000000000E+04  0.30000000000E+03 0.  1.
     100001    1    1    2    0    0 -0.63693718420E+03 -0.89666721403E+03  0.64045022196E+04  0.65000000000E+04  0.15050000000E+03 0. -1.
     100001    1    1    2    0    0  0.63693718420E+03  0.89666721403E+03 -0.64045022196E+04  0.65000000000E+04  0.15050000000E+03 0.  1.
</event>
<event>
 4    1  0.5640637E-004  0.6500000E+04  0.7818608E-02  0.7223770E-01
         52   -1    0    0    0    0  0.00000000000E+00  0.00000000000E+00  0.64930732323E+04  0.65000000000E+04  0.30000000000E+03 0. -1.
        -52   -1    0    0    0    0 -0.00000000000E+00 -0.00000000000E+00 -0.64930732323E+04  0.65000000000E+04  0.30000000000E+03 0.  1.
     100001    1    1    2    0    0 -0.44527421747E+03  0.54542075355E+03 -0.64599997541E+04  0.65000000000E+04  0.15050000000E+03 0.  1.
     100001    1    1    2    0    0  0.44527421747E+03 -0.54542075355E+03  0.64599997541E+04  0.65000000000E+04  0.15050000000E+03 0. -1.
</event>
<event>
 4    1  0.5640637E-004  0.6500000E+04  0.7818608E-02  0.7223770E-01
         52   -1    0    0    0    0  0.00000000000E+00  0.00000000000E+00  0.64930732323E+04  0.65000000000E+04  0.30000000000E+03 0. -1.
        -52   -1    0    0    0    0 -0.00000000000E+00 -0.00000000000E+00 -0.64930732323E+04  0.65000000000E+04  0.30000000000E+03 0.  1.
     100001    1    1    2    0    0  0.59490058798E+03 -0.37655855228E+04 -0.52624907326E+04  0.65000000000E+04  0.15050000000E+03 0.  1.
     100001    1    1    2    0    0 -0.59490058798E+03  0.37655855228E+04  0.52624907326E+04  0.65000000000E+04  0.15050000000E+03 0. -1.
</event>
<event>
 4    1  0.5640637E-004  0.6500000E+04  0.7818608E-02  0.7223770E-01
         52   -1    0    0    0    0  0.00000000000E+00  0.00000000000E+00  0.64930732323E+04  0.65000000000E+04  0.30000000000E+03 0. -1.
        -52   -1    0    0    0    0 -0.00000000000E+00 -0.00000000000E+00 -0.64930732323E+04  0.65000000000E+04  0.30000000000E+03 0. -1.
     100001    1    1    2    0    0 -0.16006126529E+03  0.15449177671E+02  0.64962675025E+04  0.65000000000E+04  0.15050000000E+03 0. -1.
     100001    1    1    2    0    0  0.16006126529E+03 -0.15449177671E+02 -0.64962675025E+04  0.65000000000E+04  0.15050000000E+03 0. -1.
</event>
<event>
 4    1  0.5640637E-004  0.6500000E+04  0.7818608E-02  0.7223770E-01
         52   -1    0    0    0    0  0.00000000000E+00  0.00000000000E+00  0.64930732323E+04  0.65000000000E+04  0.30000000000E+03 0.  1.
        -52   -1    0    0    0    0 -0.00000000000E+00 -0.00000000000E+00 -0.64930732323E+04  0.65000000000E+04  0.30000000000E+03 0. -1.
     100001    1    1    2    0    0  0.75818960663E+03  0.33599754659E+04  0.55102688808E+04  0.65000000000E+04  0.15050000000E+03 0.  1.
     100001    1    1    2    0    0 -0.75818960663E+03 -0.33599754659E+04 -0.55102688808E+04  0.65000000000E+04  0.15050000000E+03 0. -1.
</event>
<event>
 4    1  0.5640637E-004  0.6500000E+04  0.7818608E-02  0.7223770E-01
         52   -1    0    0    0    0  0.00000000000E+00  0.00000000000E+00  0.64930732323E+04  0.65000000000E+04  0.30000000000E+03 0. -1.
        -52   -1    0    0    0    0 -0.00000000000E+00 -0.00000000000E+00 -0.64930732323E+04  0.65000000000E+04  0.30000000000E+03 0.  1.
     100001    1    1    2    0    0  0.15350616773E+04  0.34624225560E+04 -0.52803944399E+04  0.65000000000E+04  0.15050000000E+03 0.  1.
     100001    1    1    2    0    0 -0.15350616773E+04 -0.34624225560E+04  0.52803944399E+04  0.65000000000E+04  0.15050000000E+03 0. -1.
</event>
<event>
 4    1  0.5640637E-004  0.6500000E+04  0.7818608E-02  0.7223770E-01
         52   -1    0    0    0    0  0.00000000000E+00  0.00000000000E+00  0.64930732323E+04  0.65000000000E+04  0.30000000000E+03 0. -1.
        -52   -1    0    0    0    0 -0.00000000000E+00 -0.00000000000E+00 -0.64930732323E+04  0.65000000000E+04  0.30000000000E+03 0.  1.
     100001    1    1    2    0    0  0.16634153468E+04  0.55136349530E+03 -0.62575072857E+04  0.65000000000E+04  0.15050000000E+03 0.  1.
     100001    1    1    2    0    0 -0.16634153468E+04 -0.55136349530E+03  0.62575072857E+04  0.65000000000E+04  0.15050000000E+03 0. -1.
</event>
<event>
 4    1  0.6553214E-004  0.6500000E+04  0.7818608E-02  0.7223770E-01
         52   -1    0    0    0    0  0.00000000000E+00  0.00000000000E+00  0.64930732323E+04  0.65000000000E+04  0.30000000000E+03 0. -1.
        -52   -1    0    0    0    0 -0.00000000000E+00 -0.00000000000E+00 -0.64930732323E+04  0.65000000000E+04  0.30000000000E+03 0.  1.
     100001    1    1    2    0    0  0.17874860969E+03 -0.15375239847E+03  0.64939786637E+04  0.65000000000E+04  0.15050000000E+03 0. -1.
     100001    1    1    2    0    0 -0.17874860969E+03  0.15375239847E+03 -0.64939786637E+04  0.65000000000E+04  0.15050000000E+03 0.  1.
</event>
<event>
 4    1  0.5640637E-004  0.6500000E+04  0.7818608E-02  0.7223770E-01
         52   -1    0    0    0    0  0.00000000000E+00  0.00000000000E+00  0.64930732323E+04  0.65000000000E+04  0.30000000000E+03 0. -1.
        -52   -1    0    0    0    0 -0.00000000000E+00 -0.00000000000E+00 -0.64930732323E+04  0.65000000000E+04  0.30000000000E+03 0.  1.
     100001    1    1    2    0    0 -0.53579534139E+04  0.11274197064E+04 -0.34998013901E+04  0.65000000000E+04  0.15050000000E+03 0.  1.
     100001    1    1    2    0    0  0.53579534139E+04 -0.11274197064E+04  0.34998013901E+04  0.65000000000E+04  0.15050000000E+03 0. -1.
</event>
<event>
 4    1  0.5640637E-004  0.6500000E+04  0.7818608E-02  0.7223770E-01
         52   -1    0    0    0    0  0.00000000000E+00  0.00000000000E+00  0.64930732323E+04  0.65000000000E+04  0.30000000000E+03 0.  1.
        -52   -1    0    0    0    0 -0.00000000000E+00 -0.00000000000E+00 -0.64930732323E+04  0.65000000000E+04  0.30000000000E+03 0.  1.
     100001    1    1    2    0    0  0.26185833407E+02  0.25577481979E+02  0.64981543414E+04  0.65000000000E+04  0.15050000000E+03 0.  1.
     100001    1    1    2    0    0 -0.26185833407E+02 -0.25577481979E+02 -0.64981543414E+04  0.65000000000E+04  0.15050000000E+03 0.  1.
</event>
<event>
 4    1  0.5640637E-004  0.6500000E+04  0.7818608E-02  0.7223770E-01
         52   -1    0    0    0    0  0.00000000000E+00  0.00000000000E+00  0.64930732323E+04  0.65000000000E+04  0.30000000000E+03 0.  1.
        -52   -1    0    0    0    0 -0.00000000000E+00 -0.00000000000E+00 -0.64930732323E+04  0.65000000000E+04  0.30000000000E+03 0. -1.
     100001    1    1    2    0    0  0.21653284597E+02 -0.33755199771E+03  0.64894483228E+04  0.65000000000E+04  0.15050000000E+03 0.  1.
     100001    1    1    2    0    0 -0.21653284597E+02  0.33755199771E+03 -0.64894483228E+04  0.65000000000E+04  0.15050000000E+03 0. -1.
</event>
<event>
 4    1  0.5640637E-004  0.6500000E+04  0.7818608E-02  0.7223770E-01
         52   -1    0    0    0    0  0.00000000000E+00  0.00000000000E+00  0.64930732323E+04  0.65000000000E+04  0.30000000000E+03 0.  1.
        -52   -1    0    0    0    0 -0.00000000000E+00 -0.00000000000E+00 -0.64930732323E+04  0.65000000000E+04  0.30000000000E+03 0. -1.
     100001    1    1    2    0    0 -0.24677286743E+04  0.12144536018E+04  0.58875094385E+04  0.65000000000E+04  0.15050000000E+03 0.  1.
     100001    1    1    2    0    0  0.24677286743E+04 -0.12144536018E+04 -0.58875094385E+04  0.65000000000E+04  0.15050000000E+03 0. -1.
</event>
<event>
 4    1  0.5640637E-004  0.6500000E+04  0.7818608E-02  0.7223770E-01
         52   -1    0    0    0    0  0.00000000000E+00  0.00000000000E+00  0.64930732323E+04  0.65000000000E+04  0.30000000000E+03 0. -1.
        -52   -1    0    0    0    0 -0.00000000000E+00 -0.00000000000E+00 -0.64930732323E+04  0.65000000000E+04  0.30000000000E+03 0.  1.
     100001    1    1    2    0    0 -0.38804082190E+04  0.10389995429E+04  0.51078627384E+04  0.65000000000E+04  0.15050000000E+03 0. -1.
     100001    1    1    2    0    0  0.38804082190E+04 -0.10389995429E+04 -0.51078627384E+04  0.65000000000E+04  0.15050000000E+03 0.  1.
</event>
<event>
 4    1  0.5640637E-004  0.6500000E+04  0.7818608E-02  0.7223770E-01
         52   -1    0    0    0    0  0.00000000000E+00  0.00000000000E+00  0.64930732323E+04  0.65000000000E+04  0.30000000000E+03 0.  1.
        -52   -1    0    0    0    0 -0.00000000000E+00 -0.00000000000E+00 -0.64930732323E+04  0.65000000000E+04  0.30000000000E+03 0. -1.
     100001    1    1    2    0    0 -0.67802422124E+03  0.82854943199E+03 -0.64094569773E+04  0.65000000000E+04  0.15050000000E+03 0. -1.
     100001    1    1    2    0    0  0.67802422124E+03 -0.82854943199E+03  0.64094569773E+04  0.65000000000E+04  0.15050000000E+03 0.  1.
</event>
<event>
 4    1  0.5640637E-004  0.6500000E+04  0.7818608E-02  0.7223770E-01
         52   -1    0    0    0    0  0.00000000000E+00  0.00000000000E+00  0.64930732323E+04  0.65000000000E+04  0.30000000000E+03 0. -1.
        -52   -1    0    0    0    0 -0.00000000000E+00 -0.00000000000E+00 -0.64930732323E+04  0.65000000000E+04  0.30000000000E+03 0.  1.
     100001    1    1    2    0    0 -0.46421157063E+03 -0.75598046209E+03  0.64374180312E+04  0.65000000000E+04  0.15050000000E+03 0. -1.
     100001    1    1    2    0    0  0.46421157063E+03  0.75598046209E+03 -0.64374180312E+04  0.65000000000E+04  0.15050000000E+03 0.  1.
</event>
<event>
 4    1  0.5640637E-004  0.6500000E+04  0.7818608E-02  0.7223770E-01
         52   -1    0    0    0    0  0.00000000000E+00  0.00000000000E+00  0.64930732323E+04  0.65000000000E+04  0.30000000000E+03 0. -1.
        -52   -1    0    0    0    0 -0.00000000000E+00 -0.00000000000E+00 -0.64930732323E+04  0.65000000000E+04  0.30000000000E+03 0.  1.
     100001    1    1    2    0    0 -0.84458052646E+03  0.13812203920E+03 -0.64416578446E+04  0.65000000000E+04  0.15050000000E+03 0.  1.
     100001    1    1    2    0    0  0.84458052646E+03 -0.13812203920E+03  0.64416578446E+04  0.65000000000E+04  0.15050000000E+03 0. -1.
</event>
<event>
 4    1  0.5640637E-004  0.6500000E+04  0.7818608E-02  0.7223770E-01
         52   -1    0    0    0    0  0.00000000000E+00  0.00000000000E+00  0.64930732323E+04  0.65000000000E+04  0.30000000000E+03 0. -1.
        -52   -1    0    0    0    0 -0.00000000000E+00 -0.00000000000E+00 -0.64930732323E+04  0.65000000000E+04  0.30000000000E+03 0.  1.
     100001    1    1    2    0    0  0.10973884227E+04 -0.16063630287E+04 -0.62002166268E+04  0.65000000000E+04  0.15050000000E+03 0.  1.
     100001    1    1    2    0    0 -0.10973884227E+04  0.16063630287E+04  0.62002166268E+04  0.65000000000E+04  0.15050000000E+03 0. -1.
</event>
<event>
 4    1  0.5640637E-004  0.6500000E+04  0.7818608E-02  0.7223770E-01
         52   -1    0    0    0    0  0.00000000000E+00  0.00000000000E+00  0.64930732323E+04  0.65000000000E+04  0.30000000000E+03 0.  1.
        -52   -1    0    0    0    0 -0.00000000000E+00 -0.00000000000E+00 -0.64930732323E+04  0.65000000000E+04  0.30000000000E+03 0. -1.
     100001    1    1    2    0    0 -0.15026649706E+04 -0.86090307005E+02  0.63215453961E+04  0.65000000000E+04  0.15050000000E+03 0.  1.
     100001    1    1    2    0    0  0.15026649706E+04  0.86090307005E+02 -0.63215453961E+04  0.65000000000E+04  0.15050000000E+03 0. -1.
</event>
<event>
 4    1  0.5640637E-004  0.6500000E+04  0.7818608E-02  0.7223770E-01
         52   -1    0    0    0    0  0.00000000000E+00  0.00000000000E+00  0.64930732323E+04  0.65000000000E+04  0.30000000000E+03 0. -1.
        -52   -1    0    0    0    0 -0.00000000000E+00 -0.00000000000E+00 -0.64930732323E+04  0.65000000000E+04  0.30000000000E+03 0.  1.
     100001    1    1    2    0    0  0.89200456941E+03 -0.31662911857E+03 -0.64289519830E+04  0.65000000000E+04  0.15050000000E+03 0.  1.
     100001    1    1    2    0    0 -0.89200456941E+03  0.31662911857E+03  0.64289519830E+04  0.65000000000E+04  0.15050000000E+03 0. -1.
</event>
<event>
 4    1  0.5640637E-004  0.6500000E+04  0.7818608E-02  0.7223770E-01
         52   -1    0    0    0    0  0.00000000000E+00  0.00000000000E+00  0.64930732323E+04  0.65000000000E+04  0.30000000000E+03 0. -1.
        -52   -1    0    0    0    0 -0.00000000000E+00 -0.00000000000E+00 -0.64930732323E+04  0.65000000000E+04  0.30000000000E+03 0. -1.
     100001    1    1    2    0    0  0.16387334045E+03  0.86949136036E+03 -0.64377387375E+04  0.65000000000E+04  0.15050000000E+03 0. -1.
     100001    1    1    2    0    0 -0.16387334045E+03 -0.86949136036E+03  0.64377387375E+04  0.65000000000E+04  0.15050000000E+03 0. -1.
</event>
<event>
 4    1  0.5640637E-004  0.6500000E+04  0.7818608E-02  0.7223770E-01
         52   -1    0    0    0    0  0.00000000000E+00  0.00000000000E+00  0.64930732323E+04  0.65000000000E+04  0.30000000000E+03 0.  1.
        -52   -1    0    0    0    0 -0.00000000000E+00 -0.00000000000E+00 -0.64930732323E+04  0.65000000000E+04  0.30000000000E+03 0. -1.
     100001    1    1    2    0    0  0.36553468064E+04  0.42712800587E+04  0.32591342616E+04  0.65000000000E+04  0.15050000000E+03 0.  1.
     100001    1    1    2    0    0 -0.36553468064E+04 -0.42712800587E+04 -0.32591342616E+04  0.65000000000E+04  0.15050000000E+03 0. -1.
</event>
<event>
 4    1  0.5640637E-004  0.6500000E+04  0.7818608E-02  0.7223770E-01
         52   -1    0    0    0    0  0.00000000000E+00  0.00000000000E+00  0.64930732323E+04  0.65000000000E+04  0.30000000000E+03 0.  1.
        -52   -1    0    0    0    0 -0.00000000000E+00 -0.00000000000E+00 -0.64930732323E+04  0.65000000000E+04  0.30000000000E+03 0. -1.
     100001    1    1    2    0    0  0.36333768735E+04 -0.53875678369E+04 -0.59200820249E+01  0.65000000000E+04  0.15050000000E+03 0. -1.
     100001    1    1    2    0    0 -0.36333768735E+04  0.53875678369E+04  0.59200820249E+01  0.65000000000E+04  0.15050000000E+03 0.  1.
</event>
<event>
 4    1  0.5640637E-004  0.6500000E+04  0.7818608E-02  0.7223770E-01
         52   -1    0    0    0    0  0.00000000000E+00  0.00000000000E+00  0.64930732323E+04  0.65000000000E+04  0.30000000000E+03 0.  1.
        -52   -1    0    0    0    0 -0.00000000000E+00 -0.00000000000E+00 -0.64930732323E+04  0.65000000000E+04  0.30000000000E+03 0. -1.
     100001    1    1    2    0    0 -0.14996010646E+04  0.50481673745E+03  0.63026745480E+04  0.65000000000E+04  0.15050000000E+03 0.  1.
     100001    1    1    2    0    0  0.14996010646E+04 -0.50481673745E+03 -0.63026745480E+04  0.65000000000E+04  0.15050000000E+03 0. -1.
</event>
<event>
 4    1  0.5640637E-004  0.6500000E+04  0.7818608E-02  0.7223770E-01
         52   -1    0    0    0    0  0.00000000000E+00  0.00000000000E+00  0.64930732323E+04  0.65000000000E+04  0.30000000000E+03 0. -1.
        -52   -1    0    0    0    0 -0.00000000000E+00 -0.00000000000E+00 -0.64930732323E+04  0.65000000000E+04  0.30000000000E+03 0.  1.
     100001    1    1    2    0    0  0.65176247791E+03 -0.38782078327E+03 -0.64538477254E+04  0.65000000000E+04  0.15050000000E+03 0.  1.
     100001    1    1    2    0    0 -0.65176247791E+03  0.38782078327E+03  0.64538477254E+04  0.65000000000E+04  0.15050000000E+03 0. -1.
</event>
<event>
 4    1  0.5640637E-004  0.6500000E+04  0.7818608E-02  0.7223770E-01
         52   -1    0    0    0    0  0.00000000000E+00  0.00000000000E+00  0.64930732323E+04  0.65000000000E+04  0.30000000000E+03 0.  1.
        -52   -1    0    0    0    0 -0.00000000000E+00 -0.00000000000E+00 -0.64930732323E+04  0.65000000000E+04  0.30000000000E+03 0. -1.
     100001    1    1    2    0    0  0.37785600956E+02 -0.50198905729E+03 -0.64787289637E+04  0.65000000000E+04  0.15050000000E+03 0. -1.
     100001    1    1    2    0    0 -0.37785600956E+02  0.50198905729E+03  0.64787289637E+04  0.65000000000E+04  0.15050000000E+03 0.  1.
</event>
<event>
 4    1  0.5640637E-004  0.6500000E+04  0.7818608E-02  0.7223770E-01
         52   -1    0    0    0    0  0.00000000000E+00  0.00000000000E+00  0.64930732323E+04  0.65000000000E+04  0.30000000000E+03 0. -1.
        -52   -1    0    0    0    0 -0.00000000000E+00 -0.00000000000E+00 -0.64930732323E+04  0.65000000000E+04  0.30000000000E+03 0.  1.
     100001    1    1    2    0    0  0.40325153454E+03  0.10584541156E+04  0.63987821369E+04  0.65000000000E+04  0.15050000000E+03 0. -1.
     100001    1    1    2    0    0 -0.40325153454E+03 -0.10584541156E+04 -0.63987821369E+04  0.65000000000E+04  0.15050000000E+03 0.  1.
</event>
<event>
 4    1  0.5640637E-004  0.6500000E+04  0.7818608E-02  0.7223770E-01
         52   -1    0    0    0    0  0.00000000000E+00  0.00000000000E+00  0.64930732323E+04  0.65000000000E+04  0.30000000000E+03 0.  1.
        -52   -1    0    0    0    0 -0.00000000000E+00 -0.00000000000E+00 -0.64930732323E+04  0.65000000000E+04  0.30000000000E+03 0. -1.
     100001    1    1    2    0    0 -0.13099851188E+04  0.30134056787E+04  0.56063067124E+04  0.65000000000E+04  0.15050000000E+03 0.  1.
     100001    1    1    2    0    0  0.13099851188E+04 -0.30134056787E+04 -0.56063067124E+04  0.65000000000E+04  0.15050000000E+03 0. -1.
</event>
<event>
 4    1  0.7925540E-004  0.6500000E+04  0.7818608E-02  0.7223770E-01
         52   -1    0    0    0    0  0.00000000000E+00  0.00000000000E+00  0.64930732323E+04  0.65000000000E+04  0.30000000000E+03 0.  1.
        -52   -1    0    0    0    0 -0.00000000000E+00 -0.00000000000E+00 -0.64930732323E+04  0.65000000000E+04  0.30000000000E+03 0.  1.
     100001    1    1    2    0    0  0.66706582672E+02  0.83376654986E+02 -0.64973801116E+04  0.65000000000E+04  0.15050000000E+03 0.  1.
     100001    1    1    2    0    0 -0.66706582672E+02 -0.83376654986E+02  0.64973801116E+04  0.65000000000E+04  0.15050000000E+03 0.  1.
</event>
<event>
 4    1  0.5640637E-004  0.6500000E+04  0.7818608E-02  0.7223770E-01
         52   -1    0    0    0    0  0.00000000000E+00  0.00000000000E+00  0.64930732323E+04  0.65000000000E+04  0.30000000000E+03 0.  1.
        -52   -1    0    0    0    0 -0.00000000000E+00 -0.00000000000E+00 -0.64930732323E+04  0.65000000000E+04  0.30000000000E+03 0. -1.
     100001    1    1    2    0    0  0.19929890880E+04  0.89208955472E+02  0.61844471060E+04  0.65000000000E+04  0.15050000000E+03 0.  1.
     100001    1    1    2    0    0 -0.19929890880E+04 -0.89208955472E+02 -0.61844471060E+04  0.65000000000E+04  0.15050000000E+03 0. -1.
</event>
<event>
 4    1  0.5640637E-004  0.6500000E+04  0.7818608E-02  0.7223770E-01
         52   -1    0    0    0    0  0.00000000000E+00  0.00000000000E+00  0.64930732323E+04  0.65000000000E+04  0.30000000000E+03 0.  1.
        -52   -1    0    0    0    0 -0.00000000000E+00 -0.00000000000E+00 -0.64930732323E+04  0.65000000000E+04  0.30000000000E+03 0. -1.
     100001    1    1    2    0    0  0.49412315275E+04  0.32045467695E+04  0.27463540820E+04  0.65000000000E+04  0.15050000000E+03 0.  1.
     100001    1    1    2    0    0 -0.49412315275E+04 -0.32045467695E+04 -0.27463540820E+04  0.65000000000E+04  0.15050000000E+03 0. -1.
</event>
<event>
 4    1  0.5640637E-004  0.6500000E+04  0.7818608E-02  0.7223770E-01
         52   -1    0    0    0    0  0.00000000000E+00  0.00000000000E+00  0.64930732323E+04  0.65000000000E+04  0.30000000000E+03 0.  1.
        -52   -1    0    0    0    0 -0.00000000000E+00 -0.00000000000E+00 -0.64930732323E+04  0.65000000000E+04  0.30000000000E+03 0. -1.
     100001    1    1    2    0    0 -0.36467296688E+02 -0.53000912177E+03  0.64765044752E+04  0.65000000000E+04  0.15050000000E+03 0.  1.
     100001    1    1    2    0    0  0.36467296688E+02  0.53000912177E+03 -0.64765044752E+04  0.65000000000E+04  0.15050000000E+03 0. -1.
</event>
<event>
 4    1  0.5640637E-004  0.6500000E+04  0.7818608E-02  0.7223770E-01
         52   -1    0    0    0    0  0.00000000000E+00  0.00000000000E+00  0.64930732323E+04  0.65000000000E+04  0.30000000000E+03 0. -1.
        -52   -1    0    0    0    0 -0.00000000000E+00 -0.00000000000E+00 -0.64930732323E+04  0.65000000000E+04  0.30000000000E+03 0. -1.
     100001    1    1    2    0    0 -0.13719771762E+02  0.27962596006E+02 -0.64981827930E+04  0.65000000000E+04  0.15050000000E+03 0. -1.
     100001    1    1    2    0    0  0.13719771762E+02 -0.27962596006E+02  0.64981827930E+04  0.65000000000E+04  0.15050000000E+03 0. -1.
</event>
<event>
 4    1  0.5640637E-004  0.6500000E+04  0.7818608E-02  0.7223770E-01
         52   -1    0    0    0    0  0.00000000000E+00  0.00000000000E+00  0.64930732323E+04  0.65000000000E+04  0.30000000000E+03 0.  1.
        -52   -1    0    0    0    0 -0.00000000000E+00 -0.00000000000E+00 -0.64930732323E+04  0.65000000000E+04  0.30000000000E+03 0. -1.
     100001    1    1    2    0    0  0.26070386799E+03 -0.30756641202E+03  0.64857371320E+04  0.65000000000E+04  0.15050000000E+03 0.  1.
     100001    1    1    2    0    0 -0.26070386799E+03  0.30756641202E+03 -0.64857371320E+04  0.65000000000E+04  0.15050000000E+03 0. -1.
</event>
<event>
 4    1  0.5640637E-004  0.6500000E+04  0.7818608E-02  0.7223770E-01
         52   -1    0    0    0    0  0.00000000000E+00  0.00000000000E+00  0.64930732323E+04  0.65000000000E+04  0.30000000000E+03 0. -1.
        -52   -1    0    0    0    0 -0.00000000000E+00 -0.00000000000E+00 -0.64930732323E+04  0.65000000000E+04  0.30000000000E+03 0.  1.
     100001    1    1    2    0    0  0.67460103069E+03 -0.68196454191E+03 -0.64270667931E+04  0.65000000000E+04  0.15050000000E+03 0.  1.
     100001    1    1    2    0    0 -0.67460103069E+03  0.68196454191E+03  0.64270667931E+04  0.65000000000E+04  0.15050000000E+03 0. -1.
</event>
<event>
 4    1  0.5640637E-004  0.6500000E+04  0.7818608E-02  0.7223770E-01
         52   -1    0    0    0    0  0.00000000000E+00  0.00000000000E+00  0.64930732323E+04  0.65000000000E+04  0.30000000000E+03 0.  1.
        -52   -1    0    0    0    0 -0.00000000000E+00 -0.00000000000E+00 -0.64930732323E+04  0.65000000000E+04  0.30000000000E+03 0. -1.
     100001    1    1    2    0    0  0.55953926643E+03  0.82808335964E+03  0.64209456865E+04  0.65000000000E+04  0.15050000000E+03 0.  1.
     100001    1    1    2    0    0 -0.55953926643E+03 -0.82808335964E+03 -0.64209456865E+04  0.65000000000E+04  0.15050000000E+03 0. -1.
</event>
<event>
 4    1  0.5640637E-004  0.6500000E+04  0.7818608E-02  0.7223770E-01
         52   -1    0    0    0    0  0.00000000000E+00  0.00000000000E+00  0.64930732323E+04  0.65000000000E+04  0.30000000000E+03 0.  1.
        -52   -1    0    0    0    0 -0.00000000000E+00 -0.00000000000E+00 -0.64930732323E+04  0.65000000000E+04  0.30000000000E+03 0. -1.
     100001    1    1    2    0    0  0.54036721208E+02 -0.44380746425E+03 -0.64828593011E+04  0.65000000000E+04  0.15050000000E+03 0. -1.
     100001    1    1    2    0    0 -0.54036721208E+02  0.44380746425E+03  0.64828593011E+04  0.65000000000E+04  0.15050000000E+03 0.  1.
</event>
<event>
 4    1  0.5640637E-004  0.6500000E+04  0.7818608E-02  0.7223770E-01
         52   -1    0    0    0    0  0.00000000000E+00  0.00000000000E+00  0.64930732323E+04  0.65000000000E+04  0.30000000000E+03 0. -1.
        -52   -1    0    0    0    0 -0.00000000000E+00 -0.00000000000E+00 -0.64930732323E+04  0.65000000000E+04  0.30000000000E+03 0. -1.
     100001    1    1    2    0    0  0.10966307324E+04  0.46564770424E+03 -0.63881079360E+04  0.65000000000E+04  0.15050000000E+03 0. -1.
     100001    1    1    2    0    0 -0.10966307324E+04 -0.46564770424E+03  0.63881079360E+04  0.65000000000E+04  0.15050000000E+03 0. -1.
</event>
<event>
 4    1  0.5640637E-004  0.6500000E+04  0.7818608E-02  0.7223770E-01
         52   -1    0    0    0    0  0.00000000000E+00  0.00000000000E+00  0.64930732323E+04  0.65000000000E+04  0.30000000000E+03 0. -1.
        -52   -1    0    0    0    0 -0.00000000000E+00 -0.00000000000E+00 -0.64930732323E+04  0.65000000000E+04  0.30000000000E+03 0.  1.
     100001    1    1    2    0    0 -0.16727329245E+04  0.23322622890E+04 -0.58300829264E+04  0.65000000000E+04  0.15050000000E+03 0.  1.
     100001    1    1    2    0    0  0.16727329245E+04 -0.23322622890E+04  0.58300829264E+04  0.65000000000E+04  0.15050000000E+03 0. -1.
</event>
<event>
 4    1  0.5640637E-004  0.6500000E+04  0.7818608E-02  0.7223770E-01
         52   -1    0    0    0    0  0.00000000000E+00  0.00000000000E+00  0.64930732323E+04  0.65000000000E+04  0.30000000000E+03 0.  1.
        -52   -1    0    0    0    0 -0.00000000000E+00 -0.00000000000E+00 -0.64930732323E+04  0.65000000000E+04  0.30000000000E+03 0. -1.
     100001    1    1    2    0    0 -0.51793276621E+03  0.13762108064E+03 -0.64761219752E+04  0.65000000000E+04  0.15050000000E+03 0. -1.
     100001    1    1    2    0    0  0.51793276621E+03 -0.13762108064E+03  0.64761219752E+04  0.65000000000E+04  0.15050000000E+03 0.  1.
</event>
<event>
 4    1  0.5640637E-004  0.6500000E+04  0.7818608E-02  0.7223770E-01
         52   -1    0    0    0    0  0.00000000000E+00  0.00000000000E+00  0.64930732323E+04  0.65000000000E+04  0.30000000000E+03 0. -1.
        -52   -1    0    0    0    0 -0.00000000000E+00 -0.00000000000E+00 -0.64930732323E+04  0.65000000000E+04  0.30000000000E+03 0. -1.
     100001    1    1    2    0    0 -0.42974029546E+03  0.24514406171E+02  0.64839858168E+04  0.65000000000E+04  0.15050000000E+03 0. -1.
     100001    1    1    2    0    0  0.42974029546E+03 -0.24514406171E+02 -0.64839858168E+04  0.65000000000E+04  0.15050000000E+03 0. -1.
</event>
<event>
 4    1  0.5640637E-004  0.6500000E+04  0.7818608E-02  0.7223770E-01
         52   -1    0    0    0    0  0.00000000000E+00  0.00000000000E+00  0.64930732323E+04  0.65000000000E+04  0.30000000000E+03 0.  1.
        -52   -1    0    0    0    0 -0.00000000000E+00 -0.00000000000E+00 -0.64930732323E+04  0.65000000000E+04  0.30000000000E+03 0. -1.
     100001    1    1    2    0    0 -0.21537174271E+04  0.12155908555E+04  0.60092586786E+04  0.65000000000E+04  0.15050000000E+03 0.  1.
     100001    1    1    2    0    0  0.21537174271E+04 -0.12155908555E+04 -0.60092586786E+04  0.65000000000E+04  0.15050000000E+03 0. -1.
</event>
<event>
 4    1  0.5640637E-004  0.6500000E+04  0.7818608E-02  0.7223770E-01
         52   -1    0    0    0    0  0.00000000000E+00  0.00000000000E+00  0.64930732323E+04  0.65000000000E+04  0.30000000000E+03 0.  1.
        -52   -1    0    0    0    0 -0.00000000000E+00 -0.00000000000E+00 -0.64930732323E+04  0.65000000000E+04  0.30000000000E+03 0.  1.
     100001    1    1    2    0    0 -0.13948305931E+03 -0.12899554046E+03  0.64954795340E+04  0.65000000000E+04  0.15050000000E+03 0.  1.
     100001    1    1    2    0    0  0.13948305931E+03  0.12899554046E+03 -0.64954795340E+04  0.65000000000E+04  0.15050000000E+03 0.  1.
</event>
<event>
 4    1  0.5640637E-004  0.6500000E+04  0.7818608E-02  0.7223770E-01
         52   -1    0    0    0    0  0.00000000000E+00  0.00000000000E+00  0.64930732323E+04  0.65000000000E+04  0.30000000000E+03 0.  1.
        -52   -1    0    0    0    0 -0.00000000000E+00 -0.00000000000E+00 -0.64930732323E+04  0.65000000000E+04  0.30000000000E+03 0. -1.
     100001    1    1    2    0    0 -0.29336559578E+04  0.16441343509E+04 -0.55603808060E+04  0.65000000000E+04  0.15050000000E+03 0. -1.
     100001    1    1    2    0    0  0.29336559578E+04 -0.16441343509E+04  0.55603808060E+04  0.65000000000E+04  0.15050000000E+03 0.  1.
</event>
<event>
 4    1  0.5640637E-004  0.6500000E+04  0.7818608E-02  0.7223770E-01
         52   -1    0    0    0    0  0.00000000000E+00  0.00000000000E+00  0.64930732323E+04  0.65000000000E+04  0.30000000000E+03 0.  1.
        -52   -1    0    0    0    0 -0.00000000000E+00 -0.00000000000E+00 -0.64930732323E+04  0.65000000000E+04  0.30000000000E+03 0. -1.
     100001    1    1    2    0    0  0.83908589943E+03  0.13268665558E+03  0.64424901129E+04  0.65000000000E+04  0.15050000000E+03 0.  1.
     100001    1    1    2    0    0 -0.83908589943E+03 -0.13268665558E+03 -0.64424901129E+04  0.65000000000E+04  0.15050000000E+03 0. -1.
</event>
<event>
 4    1  0.5640637E-004  0.6500000E+04  0.7818608E-02  0.7223770E-01
         52   -1    0    0    0    0  0.00000000000E+00  0.00000000000E+00  0.64930732323E+04  0.65000000000E+04  0.30000000000E+03 0. -1.
        -52   -1    0    0    0    0 -0.00000000000E+00 -0.00000000000E+00 -0.64930732323E+04  0.65000000000E+04  0.30000000000E+03 0. -1.
     100001    1    1    2    0    0 -0.10332242078E+02 -0.13929237979E+03  0.64967561619E+04  0.65000000000E+04  0.15050000000E+03 0. -1.
     100001    1    1    2    0    0  0.10332242078E+02  0.13929237979E+03 -0.64967561619E+04  0.65000000000E+04  0.15050000000E+03 0. -1.
</event>
<event>
 4    1  0.5640637E-004  0.6500000E+04  0.7818608E-02  0.7223770E-01
         52   -1    0    0    0    0  0.00000000000E+00  0.00000000000E+00  0.64930732323E+04  0.65000000000E+04  0.30000000000E+03 0. -1.
        -52   -1    0    0    0    0 -0.00000000000E+00 -0.00000000000E+00 -0.64930732323E+04  0.65000000000E+04  0.30000000000E+03 0.  1.
     100001    1    1    2    0    0  0.27817390356E+04  0.34354158593E+04  0.47631077629E+04  0.65000000000E+04  0.15050000000E+03 0. -1.
     100001    1    1    2    0    0 -0.27817390356E+04 -0.34354158593E+04 -0.47631077629E+04  0.65000000000E+04  0.15050000000E+03 0.  1.
</event>
<event>
 4    1  0.5640637E-004  0.6500000E+04  0.7818608E-02  0.7223770E-01
         52   -1    0    0    0    0  0.00000000000E+00  0.00000000000E+00  0.64930732323E+04  0.65000000000E+04  0.30000000000E+03 0. -1.
        -52   -1    0    0    0    0 -0.00000000000E+00 -0.00000000000E+00 -0.64930732323E+04  0.65000000000E+04  0.30000000000E+03 0.  1.
     100001    1    1    2    0    0  0.43262715301E+03 -0.45797587258E+03  0.64676457538E+04  0.65000000000E+04  0.15050000000E+03 0. -1.
     100001    1    1    2    0    0 -0.43262715301E+03  0.45797587258E+03 -0.64676457538E+04  0.65000000000E+04  0.15050000000E+03 0.  1.
</event>
<event>
 4    1  0.5640637E-004  0.6500000E+04  0.7818608E-02  0.7223770E-01
         52   -1    0    0    0    0  0.00000000000E+00  0.00000000000E+00  0.64930732323E+04  0.65000000000E+04  0.30000000000E+03 0.  1.
        -52   -1    0    0    0    0 -0.00000000000E+00 -0.00000000000E+00 -0.64930732323E+04  0.65000000000E+04  0.30000000000E+03 0. -1.
     100001    1    1    2    0    0  0.37330856628E+04  0.23686022641E+03 -0.53136915997E+04  0.65000000000E+04  0.15050000000E+03 0. -1.
     100001    1    1    2    0    0 -0.37330856628E+04 -0.23686022641E+03  0.53136915997E+04  0.65000000000E+04  0.15050000000E+03 0.  1.
</event>
<event>
 4    1  0.5640637E-004  0.6500000E+04  0.7818608E-02  0.7223770E-01
         52   -1    0    0    0    0  0.00000000000E+00  0.00000000000E+00  0.64930732323E+04  0.65000000000E+04  0.30000000000E+03 0.  1.
        -52   -1    0    0    0    0 -0.00000000000E+00 -0.00000000000E+00 -0.64930732323E+04  0.65000000000E+04  0.30000000000E+03 0. -1.
     100001    1    1    2    0    0 -0.37309068403E+03  0.27953621038E+03 -0.64815131411E+04  0.65000000000E+04  0.15050000000E+03 0. -1.
     100001    1    1    2    0    0  0.37309068403E+03 -0.27953621038E+03  0.64815131411E+04  0.65000000000E+04  0.15050000000E+03 0.  1.
</event>
<event>
 4    1  0.5640637E-004  0.6500000E+04  0.7818608E-02  0.7223770E-01
         52   -1    0    0    0    0  0.00000000000E+00  0.00000000000E+00  0.64930732323E+04  0.65000000000E+04  0.30000000000E+03 0.  1.
        -52   -1    0    0    0    0 -0.00000000000E+00 -0.00000000000E+00 -0.64930732323E+04  0.65000000000E+04  0.30000000000E+03 0.  1.
     100001    1    1    2    0    0  0.36358777964E+03 -0.23047183202E+03 -0.64839830668E+04  0.65000000000E+04  0.15050000000E+03 0.  1.
     100001    1    1    2    0    0 -0.36358777964E+03  0.23047183202E+03  0.64839830668E+04  0.65000000000E+04  0.15050000000E+03 0.  1.
</event>
<event>
 4    1  0.5640637E-004  0.6500000E+04  0.7818608E-02  0.7223770E-01
         52   -1    0    0    0    0  0.00000000000E+00  0.00000000000E+00  0.64930732323E+04  0.65000000000E+04  0.30000000000E+03 0.  1.
        -52   -1    0    0    0    0 -0.00000000000E+00 -0.00000000000E+00 -0.64930732323E+04  0.65000000000E+04  0.30000000000E+03 0. -1.
     100001    1    1    2    0    0 -0.19133335603E+04 -0.35031136090E+04  0.51278357501E+04  0.65000000000E+04  0.15050000000E+03 0.  1.
     100001    1    1    2    0    0  0.19133335603E+04  0.35031136090E+04 -0.51278357501E+04  0.65000000000E+04  0.15050000000E+03 0. -1.
</event>
<event>
 4    1  0.5640637E-004  0.6500000E+04  0.7818608E-02  0.7223770E-01
         52   -1    0    0    0    0  0.00000000000E+00  0.00000000000E+00  0.64930732323E+04  0.65000000000E+04  0.30000000000E+03 0. -1.
        -52   -1    0    0    0    0 -0.00000000000E+00 -0.00000000000E+00 -0.64930732323E+04  0.65000000000E+04  0.30000000000E+03 0.  1.
     100001    1    1    2    0    0 -0.39353958416E+04 -0.10818729755E+04  0.50566352632E+04  0.65000000000E+04  0.15050000000E+03 0. -1.
     100001    1    1    2    0    0  0.39353958416E+04  0.10818729755E+04 -0.50566352632E+04  0.65000000000E+04  0.15050000000E+03 0.  1.
</event>
<event>
 4    1  0.5640637E-004  0.6500000E+04  0.7818608E-02  0.7223770E-01
         52   -1    0    0    0    0  0.00000000000E+00  0.00000000000E+00  0.64930732323E+04  0.65000000000E+04  0.30000000000E+03 0. -1.
        -52   -1    0    0    0    0 -0.00000000000E+00 -0.00000000000E+00 -0.64930732323E+04  0.65000000000E+04  0.30000000000E+03 0.  1.
     100001    1    1    2    0    0  0.54144568897E+04 -0.21100653186E+04  0.29083725158E+04  0.65000000000E+04  0.15050000000E+03 0. -1.
     100001    1    1    2    0    0 -0.54144568897E+04  0.21100653186E+04 -0.29083725158E+04  0.65000000000E+04  0.15050000000E+03 0.  1.
</event>
<event>
 4    1  0.5640637E-004  0.6500000E+04  0.7818608E-02  0.7223770E-01
         52   -1    0    0    0    0  0.00000000000E+00  0.00000000000E+00  0.64930732323E+04  0.65000000000E+04  0.30000000000E+03 0.  1.
        -52   -1    0    0    0    0 -0.00000000000E+00 -0.00000000000E+00 -0.64930732323E+04  0.65000000000E+04  0.30000000000E+03 0. -1.
     100001    1    1    2    0    0  0.11212015364E+04  0.37562831121E+03  0.63897699674E+04  0.65000000000E+04  0.15050000000E+03 0.  1.
     100001    1    1    2    0    0 -0.11212015364E+04 -0.37562831121E+03 -0.63897699674E+04  0.65000000000E+04  0.15050000000E+03 0. -1.
</event>
<event>
 4    1  0.5640637E-004  0.6500000E+04  0.7818608E-02  0.7223770E-01
         52   -1    0    0    0    0  0.00000000000E+00  0.00000000000E+00  0.64930732323E+04  0.65000000000E+04  0.30000000000E+03 0.  1.
        -52   -1    0    0    0    0 -0.00000000000E+00 -0.00000000000E+00 -0.64930732323E+04  0.65000000000E+04  0.30000000000E+03 0. -1.
     100001    1    1    2    0    0  0.32634757286E+04 -0.72285297111E+03 -0.55726617967E+04  0.65000000000E+04  0.15050000000E+03 0. -1.
     100001    1    1    2    0    0 -0.32634757286E+04  0.72285297111E+03  0.55726617967E+04  0.65000000000E+04  0.15050000000E+03 0.  1.
</event>
<event>
 4    1  0.5640637E-004  0.6500000E+04  0.7818608E-02  0.7223770E-01
         52   -1    0    0    0    0  0.00000000000E+00  0.00000000000E+00  0.64930732323E+04  0.65000000000E+04  0.30000000000E+03 0.  1.
        -52   -1    0    0    0    0 -0.00000000000E+00 -0.00000000000E+00 -0.64930732323E+04  0.65000000000E+04  0.30000000000E+03 0. -1.
     100001    1    1    2    0    0  0.77548601179E+03  0.72528643040E+03 -0.64109227721E+04  0.65000000000E+04  0.15050000000E+03 0. -1.
     100001    1    1    2    0    0 -0.77548601179E+03 -0.72528643040E+03  0.64109227721E+04  0.65000000000E+04  0.15050000000E+03 0.  1.
</event>
<event>
 4    1  0.5640637E-004  0.6500000E+04  0.7818608E-02  0.7223770E-01
         52   -1    0    0    0    0  0.00000000000E+00  0.00000000000E+00  0.64930732323E+04  0.65000000000E+04  0.30000000000E+03 0. -1.
        -52   -1    0    0    0    0 -0.00000000000E+00 -0.00000000000E+00 -0.64930732323E+04  0.65000000000E+04  0.30000000000E+03 0. -1.
     100001    1    1    2    0    0  0.19279205994E+03  0.48846623575E+03  0.64770040689E+04  0.65000000000E+04  0.15050000000E+03 0. -1.
     100001    1    1    2    0    0 -0.19279205994E+03 -0.48846623575E+03 -0.64770040689E+04  0.65000000000E+04  0.15050000000E+03 0. -1.
</event>
<event>
 4    1  0.5640637E-004  0.6500000E+04  0.7818608E-02  0.7223770E-01
         52   -1    0    0    0    0  0.00000000000E+00  0.00000000000E+00  0.64930732323E+04  0.65000000000E+04  0.30000000000E+03 0. -1.
        -52   -1    0    0    0    0 -0.00000000000E+00 -0.00000000000E+00 -0.64930732323E+04  0.65000000000E+04  0.30000000000E+03 0. -1.
     100001    1    1    2    0    0 -0.19081134310E+03  0.15359995393E+03 -0.64936390287E+04  0.65000000000E+04  0.15050000000E+03 0. -1.
     100001    1    1    2    0    0  0.19081134310E+03 -0.15359995393E+03  0.64936390287E+04  0.65000000000E+04  0.15050000000E+03 0. -1.
</event>
<event>
 4    1  0.5640637E-004  0.6500000E+04  0.7818608E-02  0.7223770E-01
         52   -1    0    0    0    0  0.00000000000E+00  0.00000000000E+00  0.64930732323E+04  0.65000000000E+04  0.30000000000E+03 0. -1.
        -52   -1    0    0    0    0 -0.00000000000E+00 -0.00000000000E+00 -0.64930732323E+04  0.65000000000E+04  0.30000000000E+03 0.  1.
     100001    1    1    2    0    0  0.12816441515E+04 -0.16401738031E+04  0.61558563916E+04  0.65000000000E+04  0.15050000000E+03 0. -1.
     100001    1    1    2    0    0 -0.12816441515E+04  0.16401738031E+04 -0.61558563916E+04  0.65000000000E+04  0.15050000000E+03 0.  1.
</event>
<event>
 4    1  0.5640637E-004  0.6500000E+04  0.7818608E-02  0.7223770E-01
         52   -1    0    0    0    0  0.00000000000E+00  0.00000000000E+00  0.64930732323E+04  0.65000000000E+04  0.30000000000E+03 0. -1.
        -52   -1    0    0    0    0 -0.00000000000E+00 -0.00000000000E+00 -0.64930732323E+04  0.65000000000E+04  0.30000000000E+03 0.  1.
     100001    1    1    2    0    0  0.39403035419E+04 -0.27503042458E+04 -0.43746067598E+04  0.65000000000E+04  0.15050000000E+03 0.  1.
     100001    1    1    2    0    0 -0.39403035419E+04  0.27503042458E+04  0.43746067598E+04  0.65000000000E+04  0.15050000000E+03 0. -1.
</event>
<event>
 4    1  0.5640637E-004  0.6500000E+04  0.7818608E-02  0.7223770E-01
         52   -1    0    0    0    0  0.00000000000E+00  0.00000000000E+00  0.64930732323E+04  0.65000000000E+04  0.30000000000E+03 0.  1.
        -52   -1    0    0    0    0 -0.00000000000E+00 -0.00000000000E+00 -0.64930732323E+04  0.65000000000E+04  0.30000000000E+03 0. -1.
     100001    1    1    2    0    0  0.49988123464E+04 -0.29978102836E+04  0.28726918350E+04  0.65000000000E+04  0.15050000000E+03 0.  1.
     100001    1    1    2    0    0 -0.49988123464E+04  0.29978102836E+04 -0.28726918350E+04  0.65000000000E+04  0.15050000000E+03 0. -1.
</event>
<event>
 4    1  0.5640637E-004  0.6500000E+04  0.7818608E-02  0.7223770E-01
         52   -1    0    0    0    0  0.00000000000E+00  0.00000000000E+00  0.64930732323E+04  0.65000000000E+04  0.30000000000E+03 0. -1.
        -52   -1    0    0    0    0 -0.00000000000E+00 -0.00000000000E+00 -0.64930732323E+04  0.65000000000E+04  0.30000000000E+03 0.  1.
     100001    1    1    2    0    0  0.12362474905E+04 -0.16020574416E+04 -0.61751480829E+04  0.65000000000E+04  0.15050000000E+03 0.  1.
     100001    1    1    2    0    0 -0.12362474905E+04  0.16020574416E+04  0.61751480829E+04  0.65000000000E+04  0.15050000000E+03 0. -1.
</event>
<event>
 4    1  0.5640637E-004  0.6500000E+04  0.7818608E-02  0.7223770E-01
         52   -1    0    0    0    0  0.00000000000E+00  0.00000000000E+00  0.64930732323E+04  0.65000000000E+04  0.30000000000E+03 0. -1.
        -52   -1    0    0    0    0 -0.00000000000E+00 -0.00000000000E+00 -0.64930732323E+04  0.65000000000E+04  0.30000000000E+03 0.  1.
     100001    1    1    2    0    0  0.98399267785E+03 -0.48981398368E+04 -0.41553982118E+04  0.65000000000E+04  0.15050000000E+03 0.  1.
     100001    1    1    2    0    0 -0.98399267785E+03  0.48981398368E+04  0.41553982118E+04  0.65000000000E+04  0.15050000000E+03 0. -1.
</event>
<event>
 4    1  0.5640637E-004  0.6500000E+04  0.7818608E-02  0.7223770E-01
         52   -1    0    0    0    0  0.00000000000E+00  0.00000000000E+00  0.64930732323E+04  0.65000000000E+04  0.30000000000E+03 0.  1.
        -52   -1    0    0    0    0 -0.00000000000E+00 -0.00000000000E+00 -0.64930732323E+04  0.65000000000E+04  0.30000000000E+03 0.  1.
     100001    1    1    2    0    0 -0.15511455357E+03 -0.22829942958E+03 -0.64923931332E+04  0.65000000000E+04  0.15050000000E+03 0.  1.
     100001    1    1    2    0    0  0.15511455357E+03  0.22829942958E+03  0.64923931332E+04  0.65000000000E+04  0.15050000000E+03 0.  1.
</event>
<event>
 4    1  0.8328078E-004  0.6500000E+04  0.7818608E-02  0.7223770E-01
         52   -1    0    0    0    0  0.00000000000E+00  0.00000000000E+00  0.64930732323E+04  0.65000000000E+04  0.30000000000E+03 0. -1.
        -52   -1    0    0    0    0 -0.00000000000E+00 -0.00000000000E+00 -0.64930732323E+04  0.65000000000E+04  0.30000000000E+03 0. -1.
     100001    1    1    2    0    0  0.30871550985E+02 -0.10299653436E+03  0.64973678064E+04  0.65000000000E+04  0.15050000000E+03 0. -1.
     100001    1    1    2    0    0 -0.30871550985E+02  0.10299653436E+03 -0.64973678064E+04  0.65000000000E+04  0.15050000000E+03 0. -1.
</event>
<event>
 4    1  0.5640637E-004  0.6500000E+04  0.7818608E-02  0.7223770E-01
         52   -1    0    0    0    0  0.00000000000E+00  0.00000000000E+00  0.64930732323E+04  0.65000000000E+04  0.30000000000E+03 0.  1.
        -52   -1    0    0    0    0 -0.00000000000E+00 -0.00000000000E+00 -0.64930732323E+04  0.65000000000E+04  0.30000000000E+03 0. -1.
     100001    1    1    2    0    0 -0.44090761842E+03 -0.61097356824E+02 -0.64829944729E+04  0.65000000000E+04  0.15050000000E+03 0. -1.
     100001    1    1    2    0    0  0.44090761842E+03  0.61097356824E+02  0.64829944729E+04  0.65000000000E+04  0.15050000000E+03 0.  1.
</event>
<event>
 4    1  0.5640637E-004  0.6500000E+04  0.7818608E-02  0.7223770E-01
         52   -1    0    0    0    0  0.00000000000E+00  0.00000000000E+00  0.64930732323E+04  0.65000000000E+04  0.30000000000E+03 0.  1.
        -52   -1    0    0    0    0 -0.00000000000E+00 -0.00000000000E+00 -0.64930732323E+04  0.65000000000E+04  0.30000000000E+03 0. -1.
     100001    1    1    2    0    0 -0.23526586792E+04 -0.55231740009E+04  0.24873471502E+04  0.65000000000E+04  0.15050000000E+03 0.  1.
     100001    1    1    2    0    0  0.23526586792E+04  0.55231740009E+04 -0.24873471502E+04  0.65000000000E+04  0.15050000000E+03 0. -1.
</event>
<event>
 4    1  0.5640637E-004  0.6500000E+04  0.7818608E-02  0.7223770E-01
         52   -1    0    0    0    0  0.00000000000E+00  0.00000000000E+00  0.64930732323E+04  0.65000000000E+04  0.30000000000E+03 0. -1.
        -52   -1    0    0    0    0 -0.00000000000E+00 -0.00000000000E+00 -0.64930732323E+04  0.65000000000E+04  0.30000000000E+03 0.  1.
     100001    1    1    2    0    0 -0.21941017107E+04 -0.15504211341E+04  0.59168793920E+04  0.65000000000E+04  0.15050000000E+03 0. -1.
     100001    1    1    2    0    0  0.21941017107E+04  0.15504211341E+04 -0.59168793920E+04  0.65000000000E+04  0.15050000000E+03 0.  1.
</event>
<event>
 4    1  0.5640637E-004  0.6500000E+04  0.7818608E-02  0.7223770E-01
         52   -1    0    0    0    0  0.00000000000E+00  0.00000000000E+00  0.64930732323E+04  0.65000000000E+04  0.30000000000E+03 0. -1.
        -52   -1    0    0    0    0 -0.00000000000E+00 -0.00000000000E+00 -0.64930732323E+04  0.65000000000E+04  0.30000000000E+03 0.  1.
     100001    1    1    2    0    0 -0.58827288391E+04  0.78656308901E+03 -0.26461613069E+04  0.65000000000E+04  0.15050000000E+03 0. -1.
     100001    1    1    2    0    0  0.58827288391E+04 -0.78656308901E+03  0.26461613069E+04  0.65000000000E+04  0.15050000000E+03 0.  1.
</event>
<event>
 4    1  0.5640637E-004  0.6500000E+04  0.7818608E-02  0.7223770E-01
         52   -1    0    0    0    0  0.00000000000E+00  0.00000000000E+00  0.64930732323E+04  0.65000000000E+04  0.30000000000E+03 0.  1.
        -52   -1    0    0    0    0 -0.00000000000E+00 -0.00000000000E+00 -0.64930732323E+04  0.65000000000E+04  0.30000000000E+03 0. -1.
     100001    1    1    2    0    0 -0.31713680885E+03 -0.10818822604E+04 -0.63997113036E+04  0.65000000000E+04  0.15050000000E+03 0. -1.
     100001    1    1    2    0    0  0.31713680885E+03  0.10818822604E+04  0.63997113036E+04  0.65000000000E+04  0.15050000000E+03 0.  1.
</event>
<event>
 4    1  0.5640637E-004  0.6500000E+04  0.7818608E-02  0.7223770E-01
         52   -1    0    0    0    0  0.00000000000E+00  0.00000000000E+00  0.64930732323E+04  0.65000000000E+04  0.30000000000E+03 0.  1.
        -52   -1    0    0    0    0 -0.00000000000E+00 -0.00000000000E+00 -0.64930732323E+04  0.65000000000E+04  0.30000000000E+03 0.  1.
     100001    1    1    2    0    0 -0.53615787704E+02 -0.19298598936E+03  0.64951698596E+04  0.65000000000E+04  0.15050000000E+03 0.  1.
     100001    1    1    2    0    0  0.53615787704E+02  0.19298598936E+03 -0.64951698596E+04  0.65000000000E+04  0.15050000000E+03 0.  1.
</event>
<event>
 4    1  0.5640637E-004  0.6500000E+04  0.7818608E-02  0.7223770E-01
         52   -1    0    0    0    0  0.00000000000E+00  0.00000000000E+00  0.64930732323E+04  0.65000000000E+04  0.30000000000E+03 0. -1.
        -52   -1    0    0    0    0 -0.00000000000E+00 -0.00000000000E+00 -0.64930732323E+04  0.65000000000E+04  0.30000000000E+03 0.  1.
     100001    1    1    2    0    0  0.19665568391E+03  0.26032035293E+02  0.64952289124E+04  0.65000000000E+04  0.15050000000E+03 0. -1.
     100001    1    1    2    0    0 -0.19665568391E+03 -0.26032035293E+02 -0.64952289124E+04  0.65000000000E+04  0.15050000000E+03 0.  1.
</event>
<event>
 4    1  0.5640637E-004  0.6500000E+04  0.7818608E-02  0.7223770E-01
         52   -1    0    0    0    0  0.00000000000E+00  0.00000000000E+00  0.64930732323E+04  0.65000000000E+04  0.30000000000E+03 0. -1.
        -52   -1    0    0    0    0 -0.00000000000E+00 -0.00000000000E+00 -0.64930732323E+04  0.65000000000E+04  0.30000000000E+03 0. -1.
     100001    1    1    2    0    0  0.90925068972E+02 -0.80530127255E+02  0.64971222307E+04  0.65000000000E+04  0.15050000000E+03 0. -1.
     100001    1    1    2    0    0 -0.90925068972E+02  0.80530127255E+02 -0.64971222307E+04  0.65000000000E+04  0.15050000000E+03 0. -1.
</event>
<event>
 4    1  0.5640637E-004  0.6500000E+04  0.7818608E-02  0.7223770E-01
         52   -1    0    0    0    0  0.00000000000E+00  0.00000000000E+00  0.64930732323E+04  0.65000000000E+04  0.30000000000E+03 0.  1.
        -52   -1    0    0    0    0 -0.00000000000E+00 -0.00000000000E+00 -0.64930732323E+04  0.65000000000E+04  0.30000000000E+03 0. -1.
     100001    1    1    2    0    0  0.11293061729E+04  0.17776085101E+04  0.61475300164E+04  0.65000000000E+04  0.15050000000E+03 0.  1.
     100001    1    1    2    0    0 -0.11293061729E+04 -0.17776085101E+04 -0.61475300164E+04  0.65000000000E+04  0.15050000000E+03 0. -1.
</event>
<event>
 4    1  0.5640637E-004  0.6500000E+04  0.7818608E-02  0.7223770E-01
         52   -1    0    0    0    0  0.00000000000E+00  0.00000000000E+00  0.64930732323E+04  0.65000000000E+04  0.30000000000E+03 0. -1.
        -52   -1    0    0    0    0 -0.00000000000E+00 -0.00000000000E+00 -0.64930732323E+04  0.65000000000E+04  0.30000000000E+03 0.  1.
     100001    1    1    2    0    0  0.12315428356E+04 -0.23067226747E+04 -0.59489228013E+04  0.65000000000E+04  0.15050000000E+03 0.  1.
     100001    1    1    2    0    0 -0.12315428356E+04  0.23067226747E+04  0.59489228013E+04  0.65000000000E+04  0.15050000000E+03 0. -1.
</event>
<event>
 4    1  0.5640637E-004  0.6500000E+04  0.7818608E-02  0.7223770E-01
         52   -1    0    0    0    0  0.00000000000E+00  0.00000000000E+00  0.64930732323E+04  0.65000000000E+04  0.30000000000E+03 0.  1.
        -52   -1    0    0    0    0 -0.00000000000E+00 -0.00000000000E+00 -0.64930732323E+04  0.65000000000E+04  0.30000000000E+03 0. -1.
     100001    1    1    2    0    0  0.43261844223E+03 -0.86079193344E+02  0.64832693455E+04  0.65000000000E+04  0.15050000000E+03 0.  1.
     100001    1    1    2    0    0 -0.43261844223E+03  0.86079193344E+02 -0.64832693455E+04  0.65000000000E+04  0.15050000000E+03 0. -1.
</event>
<event>
 4    1  0.5640637E-004  0.6500000E+04  0.7818608E-02  0.7223770E-01
         52   -1    0    0    0    0  0.00000000000E+00  0.00000000000E+00  0.64930732323E+04  0.65000000000E+04  0.30000000000E+03 0.  1.
        -52   -1    0    0    0    0 -0.00000000000E+00 -0.00000000000E+00 -0.64930732323E+04  0.65000000000E+04  0.30000000000E+03 0.  1.
     100001    1    1    2    0    0  0.75240938799E+03 -0.93882304795E+03  0.63859095787E+04  0.65000000000E+04  0.15050000000E+03 0.  1.
     100001    1    1    2    0    0 -0.75240938799E+03  0.93882304795E+03 -0.63859095787E+04  0.65000000000E+04  0.15050000000E+03 0.  1.
</event>
<event>
 4    1  0.5640637E-004  0.6500000E+04  0.7818608E-02  0.7223770E-01
         52   -1    0    0    0    0  0.00000000000E+00  0.00000000000E+00  0.64930732323E+04  0.65000000000E+04  0.30000000000E+03 0. -1.
        -52   -1    0    0    0    0 -0.00000000000E+00 -0.00000000000E+00 -0.64930732323E+04  0.65000000000E+04  0.30000000000E+03 0.  1.
     100001    1    1    2    0    0  0.15824661593E+04 -0.21017674389E+04  0.59418620177E+04  0.65000000000E+04  0.15050000000E+03 0. -1.
     100001    1    1    2    0    0 -0.15824661593E+04  0.21017674389E+04 -0.59418620177E+04  0.65000000000E+04  0.15050000000E+03 0.  1.
</event>
<event>
 4    1  0.5640637E-004  0.6500000E+04  0.7818608E-02  0.7223770E-01
         52   -1    0    0    0    0  0.00000000000E+00  0.00000000000E+00  0.64930732323E+04  0.65000000000E+04  0.30000000000E+03 0. -1.
        -52   -1    0    0    0    0 -0.00000000000E+00 -0.00000000000E+00 -0.64930732323E+04  0.65000000000E+04  0.30000000000E+03 0.  1.
     100001    1    1    2    0    0 -0.25561632490E+03 -0.14584150280E+04 -0.63273245255E+04  0.65000000000E+04  0.15050000000E+03 0.  1.
     100001    1    1    2    0    0  0.25561632490E+03  0.14584150280E+04  0.63273245255E+04  0.65000000000E+04  0.15050000000E+03 0. -1.
</event>
<event>
 4    1  0.5640637E-004  0.6500000E+04  0.7818608E-02  0.7223770E-01
         52   -1    0    0    0    0  0.00000000000E+00  0.00000000000E+00  0.64930732323E+04  0.65000000000E+04  0.30000000000E+03 0. -1.
        -52   -1    0    0    0    0 -0.00000000000E+00 -0.00000000000E+00 -0.64930732323E+04  0.65000000000E+04  0.30000000000E+03 0.  1.
     100001    1    1    2    0    0 -0.11380817336E+04  0.63940021274E+04  0.22103509188E+03  0.65000000000E+04  0.15050000000E+03 0.  1.
     100001    1    1    2    0    0  0.11380817336E+04 -0.63940021274E+04 -0.22103509188E+03  0.65000000000E+04  0.15050000000E+03 0. -1.
</event>
<event>
 4    1  0.5640637E-004  0.6500000E+04  0.7818608E-02  0.7223770E-01
         52   -1    0    0    0    0  0.00000000000E+00  0.00000000000E+00  0.64930732323E+04  0.65000000000E+04  0.30000000000E+03 0.  1.
        -52   -1    0    0    0    0 -0.00000000000E+00 -0.00000000000E+00 -0.64930732323E+04  0.65000000000E+04  0.30000000000E+03 0. -1.
     100001    1    1    2    0    0 -0.16575680446E+03  0.69209352583E+03  0.64591703015E+04  0.65000000000E+04  0.15050000000E+03 0.  1.
     100001    1    1    2    0    0  0.16575680446E+03 -0.69209352583E+03 -0.64591703015E+04  0.65000000000E+04  0.15050000000E+03 0. -1.
</event>
<event>
 4    1  0.5640637E-004  0.6500000E+04  0.7818608E-02  0.7223770E-01
         52   -1    0    0    0    0  0.00000000000E+00  0.00000000000E+00  0.64930732323E+04  0.65000000000E+04  0.30000000000E+03 0. -1.
        -52   -1    0    0    0    0 -0.00000000000E+00 -0.00000000000E+00 -0.64930732323E+04  0.65000000000E+04  0.30000000000E+03 0.  1.
     100001    1    1    2    0    0 -0.47885372404E+04  0.14288796332E+04  0.41539816853E+04  0.65000000000E+04  0.15050000000E+03 0. -1.
     100001    1    1    2    0    0  0.47885372404E+04 -0.14288796332E+04 -0.41539816853E+04  0.65000000000E+04  0.15050000000E+03 0.  1.
</event>
<event>
 4    1  0.5640637E-004  0.6500000E+04  0.7818608E-02  0.7223770E-01
         52   -1    0    0    0    0  0.00000000000E+00  0.00000000000E+00  0.64930732323E+04  0.65000000000E+04  0.30000000000E+03 0. -1.
        -52   -1    0    0    0    0 -0.00000000000E+00 -0.00000000000E+00 -0.64930732323E+04  0.65000000000E+04  0.30000000000E+03 0.  1.
     100001    1    1    2    0    0 -0.11788138415E+04 -0.61474378833E+04 -0.17454956742E+04  0.65000000000E+04  0.15050000000E+03 0.  1.
     100001    1    1    2    0    0  0.11788138415E+04  0.61474378833E+04  0.17454956742E+04  0.65000000000E+04  0.15050000000E+03 0. -1.
</event>
<event>
 4    1  0.5640637E-004  0.6500000E+04  0.7818608E-02  0.7223770E-01
         52   -1    0    0    0    0  0.00000000000E+00  0.00000000000E+00  0.64930732323E+04  0.65000000000E+04  0.30000000000E+03 0. -1.
        -52   -1    0    0    0    0 -0.00000000000E+00 -0.00000000000E+00 -0.64930732323E+04  0.65000000000E+04  0.30000000000E+03 0.  1.
     100001    1    1    2    0    0  0.57507568916E+03  0.14599797201E+04  0.63059572563E+04  0.65000000000E+04  0.15050000000E+03 0. -1.
     100001    1    1    2    0    0 -0.57507568916E+03 -0.14599797201E+04 -0.63059572563E+04  0.65000000000E+04  0.15050000000E+03 0.  1.
</event>
<event>
 4    1  0.6921123E-004  0.6500000E+04  0.7818608E-02  0.7223770E-01
         52   -1    0    0    0    0  0.00000000000E+00  0.00000000000E+00  0.64930732323E+04  0.65000000000E+04  0.30000000000E+03 0.  1.
        -52   -1    0    0    0    0 -0.00000000000E+00 -0.00000000000E+00 -0.64930732323E+04  0.65000000000E+04  0.30000000000E+03 0.  1.
     100001    1    1    2    0    0  0.12209925327E+03  0.22376536153E+02  0.64970717106E+04  0.65000000000E+04  0.15050000000E+03 0.  1.
     100001    1    1    2    0    0 -0.12209925327E+03 -0.22376536153E+02 -0.64970717106E+04  0.65000000000E+04  0.15050000000E+03 0.  1.
</event>
<event>
 4    1  0.5640637E-004  0.6500000E+04  0.7818608E-02  0.7223770E-01
         52   -1    0    0    0    0  0.00000000000E+00  0.00000000000E+00  0.64930732323E+04  0.65000000000E+04  0.30000000000E+03 0. -1.
        -52   -1    0    0    0    0 -0.00000000000E+00 -0.00000000000E+00 -0.64930732323E+04  0.65000000000E+04  0.30000000000E+03 0.  1.
     100001    1    1    2    0    0 -0.29812159736E+03  0.53441484373E+03 -0.64693797259E+04  0.65000000000E+04  0.15050000000E+03 0.  1.
     100001    1    1    2    0    0  0.29812159736E+03 -0.53441484373E+03  0.64693797259E+04  0.65000000000E+04  0.15050000000E+03 0. -1.
</event>
<event>
 4    1  0.5640637E-004  0.6500000E+04  0.7818608E-02  0.7223770E-01
         52   -1    0    0    0    0  0.00000000000E+00  0.00000000000E+00  0.64930732323E+04  0.65000000000E+04  0.30000000000E+03 0. -1.
        -52   -1    0    0    0    0 -0.00000000000E+00 -0.00000000000E+00 -0.64930732323E+04  0.65000000000E+04  0.30000000000E+03 0.  1.
     100001    1    1    2    0    0  0.62116172354E+03 -0.12242663504E+03 -0.64673425441E+04  0.65000000000E+04  0.15050000000E+03 0.  1.
     100001    1    1    2    0    0 -0.62116172354E+03  0.12242663504E+03  0.64673425441E+04  0.65000000000E+04  0.15050000000E+03 0. -1.
</event>
<event>
 4    1  0.5640637E-004  0.6500000E+04  0.7818608E-02  0.7223770E-01
         52   -1    0    0    0    0  0.00000000000E+00  0.00000000000E+00  0.64930732323E+04  0.65000000000E+04  0.30000000000E+03 0. -1.
        -52   -1    0    0    0    0 -0.00000000000E+00 -0.00000000000E+00 -0.64930732323E+04  0.65000000000E+04  0.30000000000E+03 0. -1.
     100001    1    1    2    0    0  0.19794503917E+03 -0.33175019396E+02 -0.64951571905E+04  0.65000000000E+04  0.15050000000E+03 0. -1.
     100001    1    1    2    0    0 -0.19794503917E+03  0.33175019396E+02  0.64951571905E+04  0.65000000000E+04  0.15050000000E+03 0. -1.
</event>
<event>
 4    1  0.5640637E-004  0.6500000E+04  0.7818608E-02  0.7223770E-01
         52   -1    0    0    0    0  0.00000000000E+00  0.00000000000E+00  0.64930732323E+04  0.65000000000E+04  0.30000000000E+03 0. -1.
        -52   -1    0    0    0    0 -0.00000000000E+00 -0.00000000000E+00 -0.64930732323E+04  0.65000000000E+04  0.30000000000E+03 0. -1.
     100001    1    1    2    0    0 -0.57422324110E+03 -0.32705866884E+04  0.55857748015E+04  0.65000000000E+04  0.15050000000E+03 0. -1.
     100001    1    1    2    0    0  0.57422324110E+03  0.32705866884E+04 -0.55857748015E+04  0.65000000000E+04  0.15050000000E+03 0. -1.
</event>
<event>
 4    1  0.5640637E-004  0.6500000E+04  0.7818608E-02  0.7223770E-01
         52   -1    0    0    0    0  0.00000000000E+00  0.00000000000E+00  0.64930732323E+04  0.65000000000E+04  0.30000000000E+03 0.  1.
        -52   -1    0    0    0    0 -0.00000000000E+00 -0.00000000000E+00 -0.64930732323E+04  0.65000000000E+04  0.30000000000E+03 0. -1.
     100001    1    1    2    0    0  0.20234061829E+04 -0.43570668970E+04 -0.43759736315E+04  0.65000000000E+04  0.15050000000E+03 0. -1.
     100001    1    1    2    0    0 -0.20234061829E+04  0.43570668970E+04  0.43759736315E+04  0.65000000000E+04  0.15050000000E+03 0.  1.
</event>
<event>
 4    1  0.5640637E-004  0.6500000E+04  0.7818608E-02  0.7223770E-01
         52   -1    0    0    0    0  0.00000000000E+00  0.00000000000E+00  0.64930732323E+04  0.65000000000E+04  0.30000000000E+03 0.  1.
        -52   -1    0    0    0    0 -0.00000000000E+00 -0.00000000000E+00 -0.64930732323E+04  0.65000000000E+04  0.30000000000E+03 0. -1.
     100001    1    1    2    0    0  0.37736310091E+04 -0.82465598988E+03  0.52256101323E+04  0.65000000000E+04  0.15050000000E+03 0.  1.
     100001    1    1    2    0    0 -0.37736310091E+04  0.82465598988E+03 -0.52256101323E+04  0.65000000000E+04  0.15050000000E+03 0. -1.
</event>
<event>
 4    1  0.5640637E-004  0.6500000E+04  0.7818608E-02  0.7223770E-01
         52   -1    0    0    0    0  0.00000000000E+00  0.00000000000E+00  0.64930732323E+04  0.65000000000E+04  0.30000000000E+03 0.  1.
        -52   -1    0    0    0    0 -0.00000000000E+00 -0.00000000000E+00 -0.64930732323E+04  0.65000000000E+04  0.30000000000E+03 0. -1.
     100001    1    1    2    0    0 -0.62241894268E+04  0.16524332103E+04 -0.86964372835E+03  0.65000000000E+04  0.15050000000E+03 0.  1.
     100001    1    1    2    0    0  0.62241894268E+04 -0.16524332103E+04  0.86964372835E+03  0.65000000000E+04  0.15050000000E+03 0. -1.
</event>
<event>
 4    1  0.5640637E-004  0.6500000E+04  0.7818608E-02  0.7223770E-01
         52   -1    0    0    0    0  0.00000000000E+00  0.00000000000E+00  0.64930732323E+04  0.65000000000E+04  0.30000000000E+03 0. -1.
        -52   -1    0    0    0    0 -0.00000000000E+00 -0.00000000000E+00 -0.64930732323E+04  0.65000000000E+04  0.30000000000E+03 0. -1.
     100001    1    1    2    0    0 -0.68593300808E+03  0.27258891169E+03  0.64562017428E+04  0.65000000000E+04  0.15050000000E+03 0. -1.
     100001    1    1    2    0    0  0.68593300808E+03 -0.27258891169E+03 -0.64562017428E+04  0.65000000000E+04  0.15050000000E+03 0. -1.
</event>
<event>
 4    1  0.5640637E-004  0.6500000E+04  0.7818608E-02  0.7223770E-01
         52   -1    0    0    0    0  0.00000000000E+00  0.00000000000E+00  0.64930732323E+04  0.65000000000E+04  0.30000000000E+03 0.  1.
        -52   -1    0    0    0    0 -0.00000000000E+00 -0.00000000000E+00 -0.64930732323E+04  0.65000000000E+04  0.30000000000E+03 0. -1.
     100001    1    1    2    0    0 -0.73482627621E+03  0.22411901716E+04  0.60551173984E+04  0.65000000000E+04  0.15050000000E+03 0.  1.
     100001    1    1    2    0    0  0.73482627621E+03 -0.22411901716E+04 -0.60551173984E+04  0.65000000000E+04  0.15050000000E+03 0. -1.
</event>
<event>
 4    1  0.5640637E-004  0.6500000E+04  0.7818608E-02  0.7223770E-01
         52   -1    0    0    0    0  0.00000000000E+00  0.00000000000E+00  0.64930732323E+04  0.65000000000E+04  0.30000000000E+03 0.  1.
        -52   -1    0    0    0    0 -0.00000000000E+00 -0.00000000000E+00 -0.64930732323E+04  0.65000000000E+04  0.30000000000E+03 0. -1.
     100001    1    1    2    0    0  0.22814767169E+04  0.21259765677E+04 -0.57010908933E+04  0.65000000000E+04  0.15050000000E+03 0. -1.
     100001    1    1    2    0    0 -0.22814767169E+04 -0.21259765677E+04  0.57010908933E+04  0.65000000000E+04  0.15050000000E+03 0.  1.
</event>
<event>
 4    1  0.5640637E-004  0.6500000E+04  0.7818608E-02  0.7223770E-01
         52   -1    0    0    0    0  0.00000000000E+00  0.00000000000E+00  0.64930732323E+04  0.65000000000E+04  0.30000000000E+03 0. -1.
        -52   -1    0    0    0    0 -0.00000000000E+00 -0.00000000000E+00 -0.64930732323E+04  0.65000000000E+04  0.30000000000E+03 0.  1.
     100001    1    1    2    0    0  0.15200723621E+04 -0.13107457779E+04  0.61805076870E+04  0.65000000000E+04  0.15050000000E+03 0. -1.
     100001    1    1    2    0    0 -0.15200723621E+04  0.13107457779E+04 -0.61805076870E+04  0.65000000000E+04  0.15050000000E+03 0.  1.
</event>
<event>
 4    1  0.5640637E-004  0.6500000E+04  0.7818608E-02  0.7223770E-01
         52   -1    0    0    0    0  0.00000000000E+00  0.00000000000E+00  0.64930732323E+04  0.65000000000E+04  0.30000000000E+03 0.  1.
        -52   -1    0    0    0    0 -0.00000000000E+00 -0.00000000000E+00 -0.64930732323E+04  0.65000000000E+04  0.30000000000E+03 0. -1.
     100001    1    1    2    0    0 -0.27143163246E+03  0.89984075224E+03  0.64299270011E+04  0.65000000000E+04  0.15050000000E+03 0.  1.
     100001    1    1    2    0    0  0.27143163246E+03 -0.89984075224E+03 -0.64299270011E+04  0.65000000000E+04  0.15050000000E+03 0. -1.
</event>
<event>
 4    1  0.5640637E-004  0.6500000E+04  0.7818608E-02  0.7223770E-01
         52   -1    0    0    0    0  0.00000000000E+00  0.00000000000E+00  0.64930732323E+04  0.65000000000E+04  0.30000000000E+03 0. -1.
        -52   -1    0    0    0    0 -0.00000000000E+00 -0.00000000000E+00 -0.64930732323E+04  0.65000000000E+04  0.30000000000E+03 0.  1.
     100001    1    1    2    0    0  0.65004262978E+03  0.12931897107E+04  0.63350181295E+04  0.65000000000E+04  0.15050000000E+03 0. -1.
     100001    1    1    2    0    0 -0.65004262978E+03 -0.12931897107E+04 -0.63350181295E+04  0.65000000000E+04  0.15050000000E+03 0.  1.
</event>
<event>
 4    1  0.5640637E-004  0.6500000E+04  0.7818608E-02  0.7223770E-01
         52   -1    0    0    0    0  0.00000000000E+00  0.00000000000E+00  0.64930732323E+04  0.65000000000E+04  0.30000000000E+03 0.  1.
        -52   -1    0    0    0    0 -0.00000000000E+00 -0.00000000000E+00 -0.64930732323E+04  0.65000000000E+04  0.30000000000E+03 0. -1.
     100001    1    1    2    0    0 -0.20181663873E+04 -0.52216721697E+04 -0.32997718005E+04  0.65000000000E+04  0.15050000000E+03 0. -1.
     100001    1    1    2    0    0  0.20181663873E+04  0.52216721697E+04  0.32997718005E+04  0.65000000000E+04  0.15050000000E+03 0.  1.
</event>
<event>
 4    1  0.5640637E-004  0.6500000E+04  0.7818608E-02  0.7223770E-01
         52   -1    0    0    0    0  0.00000000000E+00  0.00000000000E+00  0.64930732323E+04  0.65000000000E+04  0.30000000000E+03 0. -1.
        -52   -1    0    0    0    0 -0.00000000000E+00 -0.00000000000E+00 -0.64930732323E+04  0.65000000000E+04  0.30000000000E+03 0.  1.
     100001    1    1    2    0    0 -0.10653827431E+04 -0.81625125159E+03  0.63581477849E+04  0.65000000000E+04  0.15050000000E+03 0. -1.
     100001    1    1    2    0    0  0.10653827431E+04  0.81625125159E+03 -0.63581477849E+04  0.65000000000E+04  0.15050000000E+03 0.  1.
</event>
<event>
 4    1  0.5640637E-004  0.6500000E+04  0.7818608E-02  0.7223770E-01
         52   -1    0    0    0    0  0.00000000000E+00  0.00000000000E+00  0.64930732323E+04  0.65000000000E+04  0.30000000000E+03 0. -1.
        -52   -1    0    0    0    0 -0.00000000000E+00 -0.00000000000E+00 -0.64930732323E+04  0.65000000000E+04  0.30000000000E+03 0.  1.
     100001    1    1    2    0    0  0.10585371737E+04  0.85808281920E+03 -0.63537817619E+04  0.65000000000E+04  0.15050000000E+03 0.  1.
     100001    1    1    2    0    0 -0.10585371737E+04 -0.85808281920E+03  0.63537817619E+04  0.65000000000E+04  0.15050000000E+03 0. -1.
</event>
<event>
 4    1  0.5640637E-004  0.6500000E+04  0.7818608E-02  0.7223770E-01
         52   -1    0    0    0    0  0.00000000000E+00  0.00000000000E+00  0.64930732323E+04  0.65000000000E+04  0.30000000000E+03 0. -1.
        -52   -1    0    0    0    0 -0.00000000000E+00 -0.00000000000E+00 -0.64930732323E+04  0.65000000000E+04  0.30000000000E+03 0.  1.
     100001    1    1    2    0    0 -0.29769636010E+04  0.26356059723E+04 -0.51399045348E+04  0.65000000000E+04  0.15050000000E+03 0. -1.
     100001    1    1    2    0    0  0.29769636010E+04 -0.26356059723E+04  0.51399045348E+04  0.65000000000E+04  0.15050000000E+03 0.  1.
</event>
<event>
 4    1  0.5640637E-004  0.6500000E+04  0.7818608E-02  0.7223770E-01
         52   -1    0    0    0    0  0.00000000000E+00  0.00000000000E+00  0.64930732323E+04  0.65000000000E+04  0.30000000000E+03 0. -1.
        -52   -1    0    0    0    0 -0.00000000000E+00 -0.00000000000E+00 -0.64930732323E+04  0.65000000000E+04  0.30000000000E+03 0.  1.
     100001    1    1    2    0    0 -0.20668061866E+04  0.37790994632E+04  0.48656005986E+04  0.65000000000E+04  0.15050000000E+03 0. -1.
     100001    1    1    2    0    0  0.20668061866E+04 -0.37790994632E+04 -0.48656005986E+04  0.65000000000E+04  0.15050000000E+03 0.  1.
</event>
<event>
 4    1  0.5640637E-004  0.6500000E+04  0.7818608E-02  0.7223770E-01
         52   -1    0    0    0    0  0.00000000000E+00  0.00000000000E+00  0.64930732323E+04  0.65000000000E+04  0.30000000000E+03 0.  1.
        -52   -1    0    0    0    0 -0.00000000000E+00 -0.00000000000E+00 -0.64930732323E+04  0.65000000000E+04  0.30000000000E+03 0. -1.
     100001    1    1    2    0    0  0.62199625297E+04  0.43598241537E+03  0.18301189068E+04  0.65000000000E+04  0.15050000000E+03 0.  1.
     100001    1    1    2    0    0 -0.62199625297E+04 -0.43598241537E+03 -0.18301189068E+04  0.65000000000E+04  0.15050000000E+03 0. -1.
</event>
<event>
 4    1  0.5640637E-004  0.6500000E+04  0.7818608E-02  0.7223770E-01
         52   -1    0    0    0    0  0.00000000000E+00  0.00000000000E+00  0.64930732323E+04  0.65000000000E+04  0.30000000000E+03 0.  1.
        -52   -1    0    0    0    0 -0.00000000000E+00 -0.00000000000E+00 -0.64930732323E+04  0.65000000000E+04  0.30000000000E+03 0. -1.
     100001    1    1    2    0    0  0.13351714807E+04  0.42724931314E+04 -0.47106760989E+04  0.65000000000E+04  0.15050000000E+03 0. -1.
     100001    1    1    2    0    0 -0.13351714807E+04 -0.42724931314E+04  0.47106760989E+04  0.65000000000E+04  0.15050000000E+03 0.  1.
</event>
<event>
 4    1  0.5640637E-004  0.6500000E+04  0.7818608E-02  0.7223770E-01
         52   -1    0    0    0    0  0.00000000000E+00  0.00000000000E+00  0.64930732323E+04  0.65000000000E+04  0.30000000000E+03 0.  1.
        -52   -1    0    0    0    0 -0.00000000000E+00 -0.00000000000E+00 -0.64930732323E+04  0.65000000000E+04  0.30000000000E+03 0. -1.
     100001    1    1    2    0    0 -0.28389183435E+03 -0.18466383382E+03  0.64894263571E+04  0.65000000000E+04  0.15050000000E+03 0.  1.
     100001    1    1    2    0    0  0.28389183435E+03  0.18466383382E+03 -0.64894263571E+04  0.65000000000E+04  0.15050000000E+03 0. -1.
</event>
<event>
 4    1  0.5640637E-004  0.6500000E+04  0.7818608E-02  0.7223770E-01
         52   -1    0    0    0    0  0.00000000000E+00  0.00000000000E+00  0.64930732323E+04  0.65000000000E+04  0.30000000000E+03 0. -1.
        -52   -1    0    0    0    0 -0.00000000000E+00 -0.00000000000E+00 -0.64930732323E+04  0.65000000000E+04  0.30000000000E+03 0.  1.
     100001    1    1    2    0    0 -0.17855981019E+04 -0.31185134181E+04  0.54142278516E+04  0.65000000000E+04  0.15050000000E+03 0. -1.
     100001    1    1    2    0    0  0.17855981019E+04  0.31185134181E+04 -0.54142278516E+04  0.65000000000E+04  0.15050000000E+03 0.  1.
</event>
<event>
 4    1  0.5650877E-004  0.6500000E+04  0.7818608E-02  0.7223770E-01
         52   -1    0    0    0    0  0.00000000000E+00  0.00000000000E+00  0.64930732323E+04  0.65000000000E+04  0.30000000000E+03 0.  1.
        -52   -1    0    0    0    0 -0.00000000000E+00 -0.00000000000E+00 -0.64930732323E+04  0.65000000000E+04  0.30000000000E+03 0.  1.
     100001    1    1    2    0    0  0.15038795963E+03  0.18120288108E+03 -0.64939894308E+04  0.65000000000E+04  0.15050000000E+03 0.  1.
     100001    1    1    2    0    0 -0.15038795963E+03 -0.18120288108E+03  0.64939894308E+04  0.65000000000E+04  0.15050000000E+03 0.  1.
</event>
<event>
 4    1  0.5640637E-004  0.6500000E+04  0.7818608E-02  0.7223770E-01
         52   -1    0    0    0    0  0.00000000000E+00  0.00000000000E+00  0.64930732323E+04  0.65000000000E+04  0.30000000000E+03 0.  1.
        -52   -1    0    0    0    0 -0.00000000000E+00 -0.00000000000E+00 -0.64930732323E+04  0.65000000000E+04  0.30000000000E+03 0. -1.
     100001    1    1    2    0    0  0.60472759022E+04  0.16730761280E+04 -0.16907454516E+04  0.65000000000E+04  0.15050000000E+03 0. -1.
     100001    1    1    2    0    0 -0.60472759022E+04 -0.16730761280E+04  0.16907454516E+04  0.65000000000E+04  0.15050000000E+03 0.  1.
</event>
<event>
 4    1  0.5640637E-004  0.6500000E+04  0.7818608E-02  0.7223770E-01
         52   -1    0    0    0    0  0.00000000000E+00  0.00000000000E+00  0.64930732323E+04  0.65000000000E+04  0.30000000000E+03 0. -1.
        -52   -1    0    0    0    0 -0.00000000000E+00 -0.00000000000E+00 -0.64930732323E+04  0.65000000000E+04  0.30000000000E+03 0.  1.
     100001    1    1    2    0    0  0.37229984666E+03  0.76257342527E+03 -0.64426100569E+04  0.65000000000E+04  0.15050000000E+03 0.  1.
     100001    1    1    2    0    0 -0.37229984666E+03 -0.76257342527E+03  0.64426100569E+04  0.65000000000E+04  0.15050000000E+03 0. -1.
</event>
<event>
 4    1  0.5804388E-004  0.6500000E+04  0.7818608E-02  0.7223770E-01
         52   -1    0    0    0    0  0.00000000000E+00  0.00000000000E+00  0.64930732323E+04  0.65000000000E+04  0.30000000000E+03 0. -1.
        -52   -1    0    0    0    0 -0.00000000000E+00 -0.00000000000E+00 -0.64930732323E+04  0.65000000000E+04  0.30000000000E+03 0. -1.
     100001    1    1    2    0    0  0.51296220545E+00 -0.25816651583E+03 -0.64931271000E+04  0.65000000000E+04  0.15050000000E+03 0. -1.
     100001    1    1    2    0    0 -0.51296220545E+00  0.25816651583E+03  0.64931271000E+04  0.65000000000E+04  0.15050000000E+03 0. -1.
</event>
<event>
 4    1  0.5640637E-004  0.6500000E+04  0.7818608E-02  0.7223770E-01
         52   -1    0    0    0    0  0.00000000000E+00  0.00000000000E+00  0.64930732323E+04  0.65000000000E+04  0.30000000000E+03 0.  1.
        -52   -1    0    0    0    0 -0.00000000000E+00 -0.00000000000E+00 -0.64930732323E+04  0.65000000000E+04  0.30000000000E+03 0. -1.
     100001    1    1    2    0    0  0.37537138861E+03  0.59459697623E+02 -0.64871342375E+04  0.65000000000E+04  0.15050000000E+03 0. -1.
     100001    1    1    2    0    0 -0.37537138861E+03 -0.59459697623E+02  0.64871342375E+04  0.65000000000E+04  0.15050000000E+03 0.  1.
</event>
<event>
 4    1  0.5640637E-004  0.6500000E+04  0.7818608E-02  0.7223770E-01
         52   -1    0    0    0    0  0.00000000000E+00  0.00000000000E+00  0.64930732323E+04  0.65000000000E+04  0.30000000000E+03 0.  1.
        -52   -1    0    0    0    0 -0.00000000000E+00 -0.00000000000E+00 -0.64930732323E+04  0.65000000000E+04  0.30000000000E+03 0. -1.
     100001    1    1    2    0    0 -0.10182709110E+03  0.46710836900E+03  0.64806474032E+04  0.65000000000E+04  0.15050000000E+03 0.  1.
     100001    1    1    2    0    0  0.10182709110E+03 -0.46710836900E+03 -0.64806474032E+04  0.65000000000E+04  0.15050000000E+03 0. -1.
</event>
<event>
 4    1  0.5640637E-004  0.6500000E+04  0.7818608E-02  0.7223770E-01
         52   -1    0    0    0    0  0.00000000000E+00  0.00000000000E+00  0.64930732323E+04  0.65000000000E+04  0.30000000000E+03 0.  1.
        -52   -1    0    0    0    0 -0.00000000000E+00 -0.00000000000E+00 -0.64930732323E+04  0.65000000000E+04  0.30000000000E+03 0. -1.
     100001    1    1    2    0    0 -0.24506832739E+04  0.21443751342E+04  0.56234470323E+04  0.65000000000E+04  0.15050000000E+03 0.  1.
     100001    1    1    2    0    0  0.24506832739E+04 -0.21443751342E+04 -0.56234470323E+04  0.65000000000E+04  0.15050000000E+03 0. -1.
</event>
<event>
 4    1  0.5640637E-004  0.6500000E+04  0.7818608E-02  0.7223770E-01
         52   -1    0    0    0    0  0.00000000000E+00  0.00000000000E+00  0.64930732323E+04  0.65000000000E+04  0.30000000000E+03 0.  1.
        -52   -1    0    0    0    0 -0.00000000000E+00 -0.00000000000E+00 -0.64930732323E+04  0.65000000000E+04  0.30000000000E+03 0. -1.
     100001    1    1    2    0    0 -0.20142885609E+04  0.14721724337E+04  0.60002249682E+04  0.65000000000E+04  0.15050000000E+03 0.  1.
     100001    1    1    2    0    0  0.20142885609E+04 -0.14721724337E+04 -0.60002249682E+04  0.65000000000E+04  0.15050000000E+03 0. -1.
</event>
<event>
 4    1  0.5640637E-004  0.6500000E+04  0.7818608E-02  0.7223770E-01
         52   -1    0    0    0    0  0.00000000000E+00  0.00000000000E+00  0.64930732323E+04  0.65000000000E+04  0.30000000000E+03 0.  1.
        -52   -1    0    0    0    0 -0.00000000000E+00 -0.00000000000E+00 -0.64930732323E+04  0.65000000000E+04  0.30000000000E+03 0.  1.
     100001    1    1    2    0    0  0.58116355670E+02  0.72465828037E+02  0.64975934732E+04  0.65000000000E+04  0.15050000000E+03 0.  1.
     100001    1    1    2    0    0 -0.58116355670E+02 -0.72465828037E+02 -0.64975934732E+04  0.65000000000E+04  0.15050000000E+03 0.  1.
</event>
<event>
 4    1  0.5640637E-004  0.6500000E+04  0.7818608E-02  0.7223770E-01
         52   -1    0    0    0    0  0.00000000000E+00  0.00000000000E+00  0.64930732323E+04  0.65000000000E+04  0.30000000000E+03 0. -1.
        -52   -1    0    0    0    0 -0.00000000000E+00 -0.00000000000E+00 -0.64930732323E+04  0.65000000000E+04  0.30000000000E+03 0. -1.
     100001    1    1    2    0    0  0.23947142555E+02 -0.36671053198E+03  0.64878578645E+04  0.65000000000E+04  0.15050000000E+03 0. -1.
     100001    1    1    2    0    0 -0.23947142555E+02  0.36671053198E+03 -0.64878578645E+04  0.65000000000E+04  0.15050000000E+03 0. -1.
</event>
<event>
 4    1  0.5640637E-004  0.6500000E+04  0.7818608E-02  0.7223770E-01
         52   -1    0    0    0    0  0.00000000000E+00  0.00000000000E+00  0.64930732323E+04  0.65000000000E+04  0.30000000000E+03 0.  1.
        -52   -1    0    0    0    0 -0.00000000000E+00 -0.00000000000E+00 -0.64930732323E+04  0.65000000000E+04  0.30000000000E+03 0. -1.
     100001    1    1    2    0    0  0.30672592354E+04  0.13654677875E+03  0.57271830345E+04  0.65000000000E+04  0.15050000000E+03 0.  1.
     100001    1    1    2    0    0 -0.30672592354E+04 -0.13654677875E+03 -0.57271830345E+04  0.65000000000E+04  0.15050000000E+03 0. -1.
</event>
<event>
 4    1  0.5640637E-004  0.6500000E+04  0.7818608E-02  0.7223770E-01
         52   -1    0    0    0    0  0.00000000000E+00  0.00000000000E+00  0.64930732323E+04  0.65000000000E+04  0.30000000000E+03 0. -1.
        -52   -1    0    0    0    0 -0.00000000000E+00 -0.00000000000E+00 -0.64930732323E+04  0.65000000000E+04  0.30000000000E+03 0. -1.
     100001    1    1    2    0    0 -0.19529739739E+01  0.49726911661E+03 -0.64792028338E+04  0.65000000000E+04  0.15050000000E+03 0. -1.
     100001    1    1    2    0    0  0.19529739739E+01 -0.49726911661E+03  0.64792028338E+04  0.65000000000E+04  0.15050000000E+03 0. -1.
</event>
<event>
 4    1  0.5640637E-004  0.6500000E+04  0.7818608E-02  0.7223770E-01
         52   -1    0    0    0    0  0.00000000000E+00  0.00000000000E+00  0.64930732323E+04  0.65000000000E+04  0.30000000000E+03 0. -1.
        -52   -1    0    0    0    0 -0.00000000000E+00 -0.00000000000E+00 -0.64930732323E+04  0.65000000000E+04  0.30000000000E+03 0.  1.
     100001    1    1    2    0    0  0.19285338252E+04 -0.27584609840E+04  0.55586868985E+04  0.65000000000E+04  0.15050000000E+03 0. -1.
     100001    1    1    2    0    0 -0.19285338252E+04  0.27584609840E+04 -0.55586868985E+04  0.65000000000E+04  0.15050000000E+03 0.  1.
</event>
<event>
 4    1  0.5640637E-004  0.6500000E+04  0.7818608E-02  0.7223770E-01
         52   -1    0    0    0    0  0.00000000000E+00  0.00000000000E+00  0.64930732323E+04  0.65000000000E+04  0.30000000000E+03 0.  1.
        -52   -1    0    0    0    0 -0.00000000000E+00 -0.00000000000E+00 -0.64930732323E+04  0.65000000000E+04  0.30000000000E+03 0.  1.
     100001    1    1    2    0    0  0.34318006043E+03 -0.37139361117E+04 -0.53213020732E+04  0.65000000000E+04  0.15050000000E+03 0.  1.
     100001    1    1    2    0    0 -0.34318006043E+03  0.37139361117E+04  0.53213020732E+04  0.65000000000E+04  0.15050000000E+03 0.  1.
</event>
<event>
 4    1  0.5640637E-004  0.6500000E+04  0.7818608E-02  0.7223770E-01
         52   -1    0    0    0    0  0.00000000000E+00  0.00000000000E+00  0.64930732323E+04  0.65000000000E+04  0.30000000000E+03 0.  1.
        -52   -1    0    0    0    0 -0.00000000000E+00 -0.00000000000E+00 -0.64930732323E+04  0.65000000000E+04  0.30000000000E+03 0. -1.
     100001    1    1    2    0    0  0.13526008135E+04  0.15207598960E+03 -0.63541084097E+04  0.65000000000E+04  0.15050000000E+03 0. -1.
     100001    1    1    2    0    0 -0.13526008135E+04 -0.15207598960E+03  0.63541084097E+04  0.65000000000E+04  0.15050000000E+03 0.  1.
</event>
<event>
 4    1  0.5640637E-004  0.6500000E+04  0.7818608E-02  0.7223770E-01
         52   -1    0    0    0    0  0.00000000000E+00  0.00000000000E+00  0.64930732323E+04  0.65000000000E+04  0.30000000000E+03 0. -1.
        -52   -1    0    0    0    0 -0.00000000000E+00 -0.00000000000E+00 -0.64930732323E+04  0.65000000000E+04  0.30000000000E+03 0.  1.
     100001    1    1    2    0    0  0.10898044875E+04  0.10240660996E+04 -0.63238409652E+04  0.65000000000E+04  0.15050000000E+03 0.  1.
     100001    1    1    2    0    0 -0.10898044875E+04 -0.10240660996E+04  0.63238409652E+04  0.65000000000E+04  0.15050000000E+03 0. -1.
</event>
<event>
 4    1  0.5640637E-004  0.6500000E+04  0.7818608E-02  0.7223770E-01
         52   -1    0    0    0    0  0.00000000000E+00  0.00000000000E+00  0.64930732323E+04  0.65000000000E+04  0.30000000000E+03 0. -1.
        -52   -1    0    0    0    0 -0.00000000000E+00 -0.00000000000E+00 -0.64930732323E+04  0.65000000000E+04  0.30000000000E+03 0.  1.
     100001    1    1    2    0    0 -0.34725852091E+03 -0.10849917131E+04  0.63976209838E+04  0.65000000000E+04  0.15050000000E+03 0. -1.
     100001    1    1    2    0    0  0.34725852091E+03  0.10849917131E+04 -0.63976209838E+04  0.65000000000E+04  0.15050000000E+03 0.  1.
</event>
<event>
 4    1  0.5640637E-004  0.6500000E+04  0.7818608E-02  0.7223770E-01
         52   -1    0    0    0    0  0.00000000000E+00  0.00000000000E+00  0.64930732323E+04  0.65000000000E+04  0.30000000000E+03 0. -1.
        -52   -1    0    0    0    0 -0.00000000000E+00 -0.00000000000E+00 -0.64930732323E+04  0.65000000000E+04  0.30000000000E+03 0.  1.
     100001    1    1    2    0    0 -0.10789076557E+04  0.26034409054E+03 -0.64027750995E+04  0.65000000000E+04  0.15050000000E+03 0.  1.
     100001    1    1    2    0    0  0.10789076557E+04 -0.26034409054E+03  0.64027750995E+04  0.65000000000E+04  0.15050000000E+03 0. -1.
</event>
<event>
 4    1  0.5640637E-004  0.6500000E+04  0.7818608E-02  0.7223770E-01
         52   -1    0    0    0    0  0.00000000000E+00  0.00000000000E+00  0.64930732323E+04  0.65000000000E+04  0.30000000000E+03 0. -1.
        -52   -1    0    0    0    0 -0.00000000000E+00 -0.00000000000E+00 -0.64930732323E+04  0.65000000000E+04  0.30000000000E+03 0. -1.
     100001    1    1    2    0    0  0.77454383834E+03 -0.18397803647E+03 -0.64493087749E+04  0.65000000000E+04  0.15050000000E+03 0. -1.
     100001    1    1    2    0    0 -0.77454383834E+03  0.18397803647E+03  0.64493087749E+04  0.65000000000E+04  0.15050000000E+03 0. -1.
</event>
<event>
 4    1  0.5640637E-004  0.6500000E+04  0.7818608E-02  0.7223770E-01
         52   -1    0    0    0    0  0.00000000000E+00  0.00000000000E+00  0.64930732323E+04  0.65000000000E+04  0.30000000000E+03 0.  1.
        -52   -1    0    0    0    0 -0.00000000000E+00 -0.00000000000E+00 -0.64930732323E+04  0.65000000000E+04  0.30000000000E+03 0. -1.
     100001    1    1    2    0    0  0.11492217817E+04 -0.28299608240E+03 -0.63895658901E+04  0.65000000000E+04  0.15050000000E+03 0. -1.
     100001    1    1    2    0    0 -0.11492217817E+04  0.28299608240E+03  0.63895658901E+04  0.65000000000E+04  0.15050000000E+03 0.  1.
</event>
<event>
 4    1  0.5640637E-004  0.6500000E+04  0.7818608E-02  0.7223770E-01
         52   -1    0    0    0    0  0.00000000000E+00  0.00000000000E+00  0.64930732323E+04  0.65000000000E+04  0.30000000000E+03 0. -1.
        -52   -1    0    0    0    0 -0.00000000000E+00 -0.00000000000E+00 -0.64930732323E+04  0.65000000000E+04  0.30000000000E+03 0.  1.
     100001    1    1    2    0    0  0.23396249505E+03  0.27109676383E+04 -0.59011241103E+04  0.65000000000E+04  0.15050000000E+03 0.  1.
     100001    1    1    2    0    0 -0.23396249505E+03 -0.27109676383E+04  0.59011241103E+04  0.65000000000E+04  0.15050000000E+03 0. -1.
</event>
<event>
 4    1  0.5640637E-004  0.6500000E+04  0.7818608E-02  0.7223770E-01
         52   -1    0    0    0    0  0.00000000000E+00  0.00000000000E+00  0.64930732323E+04  0.65000000000E+04  0.30000000000E+03 0. -1.
        -52   -1    0    0    0    0 -0.00000000000E+00 -0.00000000000E+00 -0.64930732323E+04  0.65000000000E+04  0.30000000000E+03 0.  1.
     100001    1    1    2    0    0 -0.10516928773E+03  0.15034428047E+04 -0.63210718161E+04  0.65000000000E+04  0.15050000000E+03 0.  1.
     100001    1    1    2    0    0  0.10516928773E+03 -0.15034428047E+04  0.63210718161E+04  0.65000000000E+04  0.15050000000E+03 0. -1.
</event>
<event>
 4    1  0.8405478E-004  0.6500000E+04  0.7818608E-02  0.7223770E-01
         52   -1    0    0    0    0  0.00000000000E+00  0.00000000000E+00  0.64930732323E+04  0.65000000000E+04  0.30000000000E+03 0.  1.
        -52   -1    0    0    0    0 -0.00000000000E+00 -0.00000000000E+00 -0.64930732323E+04  0.65000000000E+04  0.30000000000E+03 0. -1.
     100001    1    1    2    0    0  0.13357341932E+03 -0.36000957675E+01  0.64968834783E+04  0.65000000000E+04  0.15050000000E+03 0.  1.
     100001    1    1    2    0    0 -0.13357341932E+03  0.36000957675E+01 -0.64968834783E+04  0.65000000000E+04  0.15050000000E+03 0. -1.
</event>
<event>
 4    1  0.5640637E-004  0.6500000E+04  0.7818608E-02  0.7223770E-01
         52   -1    0    0    0    0  0.00000000000E+00  0.00000000000E+00  0.64930732323E+04  0.65000000000E+04  0.30000000000E+03 0.  1.
        -52   -1    0    0    0    0 -0.00000000000E+00 -0.00000000000E+00 -0.64930732323E+04  0.65000000000E+04  0.30000000000E+03 0. -1.
     100001    1    1    2    0    0  0.83929467516E+03 -0.21225314846E+04 -0.60842250365E+04  0.65000000000E+04  0.15050000000E+03 0. -1.
     100001    1    1    2    0    0 -0.83929467516E+03  0.21225314846E+04  0.60842250365E+04  0.65000000000E+04  0.15050000000E+03 0.  1.
</event>
<event>
 4    1  0.5640637E-004  0.6500000E+04  0.7818608E-02  0.7223770E-01
         52   -1    0    0    0    0  0.00000000000E+00  0.00000000000E+00  0.64930732323E+04  0.65000000000E+04  0.30000000000E+03 0. -1.
        -52   -1    0    0    0    0 -0.00000000000E+00 -0.00000000000E+00 -0.64930732323E+04  0.65000000000E+04  0.30000000000E+03 0.  1.
     100001    1    1    2    0    0  0.10157858259E+04  0.18158778868E+04 -0.61561446057E+04  0.65000000000E+04  0.15050000000E+03 0.  1.
     100001    1    1    2    0    0 -0.10157858259E+04 -0.18158778868E+04  0.61561446057E+04  0.65000000000E+04  0.15050000000E+03 0. -1.
</event>
<event>
 4    1  0.5640637E-004  0.6500000E+04  0.7818608E-02  0.7223770E-01
         52   -1    0    0    0    0  0.00000000000E+00  0.00000000000E+00  0.64930732323E+04  0.65000000000E+04  0.30000000000E+03 0. -1.
        -52   -1    0    0    0    0 -0.00000000000E+00 -0.00000000000E+00 -0.64930732323E+04  0.65000000000E+04  0.30000000000E+03 0.  1.
     100001    1    1    2    0    0 -0.83167819506E+03 -0.93922695620E+03  0.63760108104E+04  0.65000000000E+04  0.15050000000E+03 0. -1.
     100001    1    1    2    0    0  0.83167819506E+03  0.93922695620E+03 -0.63760108104E+04  0.65000000000E+04  0.15050000000E+03 0.  1.
</event>
<event>
 4    1  0.5640637E-004  0.6500000E+04  0.7818608E-02  0.7223770E-01
         52   -1    0    0    0    0  0.00000000000E+00  0.00000000000E+00  0.64930732323E+04  0.65000000000E+04  0.30000000000E+03 0.  1.
        -52   -1    0    0    0    0 -0.00000000000E+00 -0.00000000000E+00 -0.64930732323E+04  0.65000000000E+04  0.30000000000E+03 0. -1.
     100001    1    1    2    0    0 -0.82296940243E+03  0.30452941348E+02 -0.64458625281E+04  0.65000000000E+04  0.15050000000E+03 0. -1.
     100001    1    1    2    0    0  0.82296940243E+03 -0.30452941348E+02  0.64458625281E+04  0.65000000000E+04  0.15050000000E+03 0.  1.
</event>
<event>
 4    1  0.5640637E-004  0.6500000E+04  0.7818608E-02  0.7223770E-01
         52   -1    0    0    0    0  0.00000000000E+00  0.00000000000E+00  0.64930732323E+04  0.65000000000E+04  0.30000000000E+03 0. -1.
        -52   -1    0    0    0    0 -0.00000000000E+00 -0.00000000000E+00 -0.64930732323E+04  0.65000000000E+04  0.30000000000E+03 0.  1.
     100001    1    1    2    0    0 -0.11741737978E+04 -0.26144910742E+04 -0.58320752795E+04  0.65000000000E+04  0.15050000000E+03 0.  1.
     100001    1    1    2    0    0  0.11741737978E+04  0.26144910742E+04  0.58320752795E+04  0.65000000000E+04  0.15050000000E+03 0. -1.
</event>
<event>
 4    1  0.5640637E-004  0.6500000E+04  0.7818608E-02  0.7223770E-01
         52   -1    0    0    0    0  0.00000000000E+00  0.00000000000E+00  0.64930732323E+04  0.65000000000E+04  0.30000000000E+03 0.  1.
        -52   -1    0    0    0    0 -0.00000000000E+00 -0.00000000000E+00 -0.64930732323E+04  0.65000000000E+04  0.30000000000E+03 0. -1.
     100001    1    1    2    0    0  0.53131833954E+03 -0.13916490447E+02 -0.64764849188E+04  0.65000000000E+04  0.15050000000E+03 0. -1.
     100001    1    1    2    0    0 -0.53131833954E+03  0.13916490447E+02  0.64764849188E+04  0.65000000000E+04  0.15050000000E+03 0.  1.
</event>
<event>
 4    1  0.5640637E-004  0.6500000E+04  0.7818608E-02  0.7223770E-01
         52   -1    0    0    0    0  0.00000000000E+00  0.00000000000E+00  0.64930732323E+04  0.65000000000E+04  0.30000000000E+03 0.  1.
        -52   -1    0    0    0    0 -0.00000000000E+00 -0.00000000000E+00 -0.64930732323E+04  0.65000000000E+04  0.30000000000E+03 0.  1.
     100001    1    1    2    0    0 -0.17915240724E+03 -0.15818659802E+03  0.64938610368E+04  0.65000000000E+04  0.15050000000E+03 0.  1.
     100001    1    1    2    0    0  0.17915240724E+03  0.15818659802E+03 -0.64938610368E+04  0.65000000000E+04  0.15050000000E+03 0.  1.
</event>
<event>
 4    1  0.5640637E-004  0.6500000E+04  0.7818608E-02  0.7223770E-01
         52   -1    0    0    0    0  0.00000000000E+00  0.00000000000E+00  0.64930732323E+04  0.65000000000E+04  0.30000000000E+03 0.  1.
        -52   -1    0    0    0    0 -0.00000000000E+00 -0.00000000000E+00 -0.64930732323E+04  0.65000000000E+04  0.30000000000E+03 0.  1.
     100001    1    1    2    0    0  0.43296881416E+03 -0.55737551513E+03 -0.64598158094E+04  0.65000000000E+04  0.15050000000E+03 0.  1.
     100001    1    1    2    0    0 -0.43296881416E+03  0.55737551513E+03  0.64598158094E+04  0.65000000000E+04  0.15050000000E+03 0.  1.
</event>
<event>
 4    1  0.5640637E-004  0.6500000E+04  0.7818608E-02  0.7223770E-01
         52   -1    0    0    0    0  0.00000000000E+00  0.00000000000E+00  0.64930732323E+04  0.65000000000E+04  0.30000000000E+03 0. -1.
        -52   -1    0    0    0    0 -0.00000000000E+00 -0.00000000000E+00 -0.64930732323E+04  0.65000000000E+04  0.30000000000E+03 0.  1.
     100001    1    1    2    0    0 -0.40537265830E+04 -0.24277754649E+04  0.44610040161E+04  0.65000000000E+04  0.15050000000E+03 0. -1.
     100001    1    1    2    0    0  0.40537265830E+04  0.24277754649E+04 -0.44610040161E+04  0.65000000000E+04  0.15050000000E+03 0.  1.
</event>
<event>
 4    1  0.5640637E-004  0.6500000E+04  0.7818608E-02  0.7223770E-01
         52   -1    0    0    0    0  0.00000000000E+00  0.00000000000E+00  0.64930732323E+04  0.65000000000E+04  0.30000000000E+03 0.  1.
        -52   -1    0    0    0    0 -0.00000000000E+00 -0.00000000000E+00 -0.64930732323E+04  0.65000000000E+04  0.30000000000E+03 0.  1.
     100001    1    1    2    0    0  0.10569608122E+04 -0.15084629854E+04 -0.62317511996E+04  0.65000000000E+04  0.15050000000E+03 0.  1.
     100001    1    1    2    0    0 -0.10569608122E+04  0.15084629854E+04  0.62317511996E+04  0.65000000000E+04  0.15050000000E+03 0.  1.
</event>
<event>
 4    1  0.5640637E-004  0.6500000E+04  0.7818608E-02  0.7223770E-01
         52   -1    0    0    0    0  0.00000000000E+00  0.00000000000E+00  0.64930732323E+04  0.65000000000E+04  0.30000000000E+03 0.  1.
        -52   -1    0    0    0    0 -0.00000000000E+00 -0.00000000000E+00 -0.64930732323E+04  0.65000000000E+04  0.30000000000E+03 0. -1.
     100001    1    1    2    0    0 -0.12367887928E+04  0.41152330624E+04 -0.48746856385E+04  0.65000000000E+04  0.15050000000E+03 0. -1.
     100001    1    1    2    0    0  0.12367887928E+04 -0.41152330624E+04  0.48746856385E+04  0.65000000000E+04  0.15050000000E+03 0.  1.
</event>
<event>
 4    1  0.5640637E-004  0.6500000E+04  0.7818608E-02  0.7223770E-01
         52   -1    0    0    0    0  0.00000000000E+00  0.00000000000E+00  0.64930732323E+04  0.65000000000E+04  0.30000000000E+03 0. -1.
        -52   -1    0    0    0    0 -0.00000000000E+00 -0.00000000000E+00 -0.64930732323E+04  0.65000000000E+04  0.30000000000E+03 0.  1.
     100001    1    1    2    0    0  0.24923390159E+04  0.15653892667E+04 -0.57935440296E+04  0.65000000000E+04  0.15050000000E+03 0.  1.
     100001    1    1    2    0    0 -0.24923390159E+04 -0.15653892667E+04  0.57935440296E+04  0.65000000000E+04  0.15050000000E+03 0. -1.
</event>
<event>
 4    1  0.5640637E-004  0.6500000E+04  0.7818608E-02  0.7223770E-01
         52   -1    0    0    0    0  0.00000000000E+00  0.00000000000E+00  0.64930732323E+04  0.65000000000E+04  0.30000000000E+03 0. -1.
        -52   -1    0    0    0    0 -0.00000000000E+00 -0.00000000000E+00 -0.64930732323E+04  0.65000000000E+04  0.30000000000E+03 0.  1.
     100001    1    1    2    0    0 -0.14082405305E+04 -0.20855231591E+04 -0.59912270455E+04  0.65000000000E+04  0.15050000000E+03 0.  1.
     100001    1    1    2    0    0  0.14082405305E+04  0.20855231591E+04  0.59912270455E+04  0.65000000000E+04  0.15050000000E+03 0. -1.
</event>
<event>
 4    1  0.5640637E-004  0.6500000E+04  0.7818608E-02  0.7223770E-01
         52   -1    0    0    0    0  0.00000000000E+00  0.00000000000E+00  0.64930732323E+04  0.65000000000E+04  0.30000000000E+03 0. -1.
        -52   -1    0    0    0    0 -0.00000000000E+00 -0.00000000000E+00 -0.64930732323E+04  0.65000000000E+04  0.30000000000E+03 0.  1.
     100001    1    1    2    0    0 -0.21716311936E+03 -0.25369740102E+04 -0.59786246580E+04  0.65000000000E+04  0.15050000000E+03 0.  1.
     100001    1    1    2    0    0  0.21716311936E+03  0.25369740102E+04  0.59786246580E+04  0.65000000000E+04  0.15050000000E+03 0. -1.
</event>
<event>
 4    1  0.5640637E-004  0.6500000E+04  0.7818608E-02  0.7223770E-01
         52   -1    0    0    0    0  0.00000000000E+00  0.00000000000E+00  0.64930732323E+04  0.65000000000E+04  0.30000000000E+03 0.  1.
        -52   -1    0    0    0    0 -0.00000000000E+00 -0.00000000000E+00 -0.64930732323E+04  0.65000000000E+04  0.30000000000E+03 0. -1.
     100001    1    1    2    0    0  0.53705563187E+03  0.30335813847E+04 -0.57215649066E+04  0.65000000000E+04  0.15050000000E+03 0. -1.
     100001    1    1    2    0    0 -0.53705563187E+03 -0.30335813847E+04  0.57215649066E+04  0.65000000000E+04  0.15050000000E+03 0.  1.
</event>
<event>
 4    1  0.5640637E-004  0.6500000E+04  0.7818608E-02  0.7223770E-01
         52   -1    0    0    0    0  0.00000000000E+00  0.00000000000E+00  0.64930732323E+04  0.65000000000E+04  0.30000000000E+03 0. -1.
        -52   -1    0    0    0    0 -0.00000000000E+00 -0.00000000000E+00 -0.64930732323E+04  0.65000000000E+04  0.30000000000E+03 0.  1.
     100001    1    1    2    0    0 -0.51869392271E+03  0.19781305040E+04  0.61680877161E+04  0.65000000000E+04  0.15050000000E+03 0. -1.
     100001    1    1    2    0    0  0.51869392271E+03 -0.19781305040E+04 -0.61680877161E+04  0.65000000000E+04  0.15050000000E+03 0.  1.
</event>
<event>
 4    1  0.5640637E-004  0.6500000E+04  0.7818608E-02  0.7223770E-01
         52   -1    0    0    0    0  0.00000000000E+00  0.00000000000E+00  0.64930732323E+04  0.65000000000E+04  0.30000000000E+03 0. -1.
        -52   -1    0    0    0    0 -0.00000000000E+00 -0.00000000000E+00 -0.64930732323E+04  0.65000000000E+04  0.30000000000E+03 0.  1.
     100001    1    1    2    0    0  0.10852654520E+04  0.47012581739E+03 -0.63897206797E+04  0.65000000000E+04  0.15050000000E+03 0.  1.
     100001    1    1    2    0    0 -0.10852654520E+04 -0.47012581739E+03  0.63897206797E+04  0.65000000000E+04  0.15050000000E+03 0. -1.
</event>
<event>
 4    1  0.5640637E-004  0.6500000E+04  0.7818608E-02  0.7223770E-01
         52   -1    0    0    0    0  0.00000000000E+00  0.00000000000E+00  0.64930732323E+04  0.65000000000E+04  0.30000000000E+03 0. -1.
        -52   -1    0    0    0    0 -0.00000000000E+00 -0.00000000000E+00 -0.64930732323E+04  0.65000000000E+04  0.30000000000E+03 0.  1.
     100001    1    1    2    0    0  0.22047934585E+03  0.39868451962E+03  0.64822672933E+04  0.65000000000E+04  0.15050000000E+03 0. -1.
     100001    1    1    2    0    0 -0.22047934585E+03 -0.39868451962E+03 -0.64822672933E+04  0.65000000000E+04  0.15050000000E+03 0.  1.
</event>
<event>
 4    1  0.7829862E-004  0.6500000E+04  0.7818608E-02  0.7223770E-01
         52   -1    0    0    0    0  0.00000000000E+00  0.00000000000E+00  0.64930732323E+04  0.65000000000E+04  0.30000000000E+03 0.  1.
        -52   -1    0    0    0    0 -0.00000000000E+00 -0.00000000000E+00 -0.64930732323E+04  0.65000000000E+04  0.30000000000E+03 0.  1.
     100001    1    1    2    0    0  0.10423836881E+03 -0.14080847298E+03  0.64958954030E+04  0.65000000000E+04  0.15050000000E+03 0.  1.
     100001    1    1    2    0    0 -0.10423836881E+03  0.14080847298E+03 -0.64958954030E+04  0.65000000000E+04  0.15050000000E+03 0.  1.
</event>
<event>
 4    1  0.5640637E-004  0.6500000E+04  0.7818608E-02  0.7223770E-01
         52   -1    0    0    0    0  0.00000000000E+00  0.00000000000E+00  0.64930732323E+04  0.65000000000E+04  0.30000000000E+03 0.  1.
        -52   -1    0    0    0    0 -0.00000000000E+00 -0.00000000000E+00 -0.64930732323E+04  0.65000000000E+04  0.30000000000E+03 0. -1.
     100001    1    1    2    0    0 -0.67865243969E+03  0.25030048081E+04  0.59583342930E+04  0.65000000000E+04  0.15050000000E+03 0.  1.
     100001    1    1    2    0    0  0.67865243969E+03 -0.25030048081E+04 -0.59583342930E+04  0.65000000000E+04  0.15050000000E+03 0. -1.
</event>
<event>
 4    1  0.5640637E-004  0.6500000E+04  0.7818608E-02  0.7223770E-01
         52   -1    0    0    0    0  0.00000000000E+00  0.00000000000E+00  0.64930732323E+04  0.65000000000E+04  0.30000000000E+03 0.  1.
        -52   -1    0    0    0    0 -0.00000000000E+00 -0.00000000000E+00 -0.64930732323E+04  0.65000000000E+04  0.30000000000E+03 0.  1.
     100001    1    1    2    0    0 -0.51267917189E+03  0.38532720037E+03  0.64665317416E+04  0.65000000000E+04  0.15050000000E+03 0.  1.
     100001    1    1    2    0    0  0.51267917189E+03 -0.38532720037E+03 -0.64665317416E+04  0.65000000000E+04  0.15050000000E+03 0.  1.
</event>
<event>
 4    1  0.5640637E-004  0.6500000E+04  0.7818608E-02  0.7223770E-01
         52   -1    0    0    0    0  0.00000000000E+00  0.00000000000E+00  0.64930732323E+04  0.65000000000E+04  0.30000000000E+03 0.  1.
        -52   -1    0    0    0    0 -0.00000000000E+00 -0.00000000000E+00 -0.64930732323E+04  0.65000000000E+04  0.30000000000E+03 0. -1.
     100001    1    1    2    0    0 -0.21260578815E+03  0.55620571450E+04 -0.33534562536E+04  0.65000000000E+04  0.15050000000E+03 0. -1.
     100001    1    1    2    0    0  0.21260578815E+03 -0.55620571450E+04  0.33534562536E+04  0.65000000000E+04  0.15050000000E+03 0.  1.
</event>
<event>
 4    1  0.5640637E-004  0.6500000E+04  0.7818608E-02  0.7223770E-01
         52   -1    0    0    0    0  0.00000000000E+00  0.00000000000E+00  0.64930732323E+04  0.65000000000E+04  0.30000000000E+03 0.  1.
        -52   -1    0    0    0    0 -0.00000000000E+00 -0.00000000000E+00 -0.64930732323E+04  0.65000000000E+04  0.30000000000E+03 0. -1.
     100001    1    1    2    0    0  0.11095083912E+04 -0.18847809920E+03 -0.64000638189E+04  0.65000000000E+04  0.15050000000E+03 0. -1.
     100001    1    1    2    0    0 -0.11095083912E+04  0.18847809920E+03  0.64000638189E+04  0.65000000000E+04  0.15050000000E+03 0.  1.
</event>
<event>
 4    1  0.5640637E-004  0.6500000E+04  0.7818608E-02  0.7223770E-01
         52   -1    0    0    0    0  0.00000000000E+00  0.00000000000E+00  0.64930732323E+04  0.65000000000E+04  0.30000000000E+03 0.  1.
        -52   -1    0    0    0    0 -0.00000000000E+00 -0.00000000000E+00 -0.64930732323E+04  0.65000000000E+04  0.30000000000E+03 0. -1.
     100001    1    1    2    0    0  0.32228380575E+04  0.22939548917E+04 -0.51554277767E+04  0.65000000000E+04  0.15050000000E+03 0. -1.
     100001    1    1    2    0    0 -0.32228380575E+04 -0.22939548917E+04  0.51554277767E+04  0.65000000000E+04  0.15050000000E+03 0.  1.
</event>
<event>
 4    1  0.5640637E-004  0.6500000E+04  0.7818608E-02  0.7223770E-01
         52   -1    0    0    0    0  0.00000000000E+00  0.00000000000E+00  0.64930732323E+04  0.65000000000E+04  0.30000000000E+03 0. -1.
        -52   -1    0    0    0    0 -0.00000000000E+00 -0.00000000000E+00 -0.64930732323E+04  0.65000000000E+04  0.30000000000E+03 0.  1.
     100001    1    1    2    0    0  0.13502203220E+04 -0.25312294367E+04 -0.58307059925E+04  0.65000000000E+04  0.15050000000E+03 0.  1.
     100001    1    1    2    0    0 -0.13502203220E+04  0.25312294367E+04  0.58307059925E+04  0.65000000000E+04  0.15050000000E+03 0. -1.
</event>
<event>
 4    1  0.5640637E-004  0.6500000E+04  0.7818608E-02  0.7223770E-01
         52   -1    0    0    0    0  0.00000000000E+00  0.00000000000E+00  0.64930732323E+04  0.65000000000E+04  0.30000000000E+03 0. -1.
        -52   -1    0    0    0    0 -0.00000000000E+00 -0.00000000000E+00 -0.64930732323E+04  0.65000000000E+04  0.30000000000E+03 0.  1.
     100001    1    1    2    0    0 -0.49079211504E+04  0.40253032783E+04 -0.13916153383E+04  0.65000000000E+04  0.15050000000E+03 0.  1.
     100001    1    1    2    0    0  0.49079211504E+04 -0.40253032783E+04  0.13916153383E+04  0.65000000000E+04  0.15050000000E+03 0. -1.
</event>
<event>
 4    1  0.5640637E-004  0.6500000E+04  0.7818608E-02  0.7223770E-01
         52   -1    0    0    0    0  0.00000000000E+00  0.00000000000E+00  0.64930732323E+04  0.65000000000E+04  0.30000000000E+03 0.  1.
        -52   -1    0    0    0    0 -0.00000000000E+00 -0.00000000000E+00 -0.64930732323E+04  0.65000000000E+04  0.30000000000E+03 0. -1.
     100001    1    1    2    0    0  0.53004983377E+04  0.29329912355E+04  0.23515164331E+04  0.65000000000E+04  0.15050000000E+03 0.  1.
     100001    1    1    2    0    0 -0.53004983377E+04 -0.29329912355E+04 -0.23515164331E+04  0.65000000000E+04  0.15050000000E+03 0. -1.
</event>
<event>
 4    1  0.5640637E-004  0.6500000E+04  0.7818608E-02  0.7223770E-01
         52   -1    0    0    0    0  0.00000000000E+00  0.00000000000E+00  0.64930732323E+04  0.65000000000E+04  0.30000000000E+03 0.  1.
        -52   -1    0    0    0    0 -0.00000000000E+00 -0.00000000000E+00 -0.64930732323E+04  0.65000000000E+04  0.30000000000E+03 0. -1.
     100001    1    1    2    0    0 -0.17020283805E+04  0.46190567511E+03 -0.62543658583E+04  0.65000000000E+04  0.15050000000E+03 0. -1.
     100001    1    1    2    0    0  0.17020283805E+04 -0.46190567511E+03  0.62543658583E+04  0.65000000000E+04  0.15050000000E+03 0.  1.
</event>
<event>
 4    1  0.5640637E-004  0.6500000E+04  0.7818608E-02  0.7223770E-01
         52   -1    0    0    0    0  0.00000000000E+00  0.00000000000E+00  0.64930732323E+04  0.65000000000E+04  0.30000000000E+03 0. -1.
        -52   -1    0    0    0    0 -0.00000000000E+00 -0.00000000000E+00 -0.64930732323E+04  0.65000000000E+04  0.30000000000E+03 0.  1.
     100001    1    1    2    0    0 -0.29617938038E+03  0.96446314399E+02  0.64907877514E+04  0.65000000000E+04  0.15050000000E+03 0. -1.
     100001    1    1    2    0    0  0.29617938038E+03 -0.96446314399E+02 -0.64907877514E+04  0.65000000000E+04  0.15050000000E+03 0.  1.
</event>
<event>
 4    1  0.5640637E-004  0.6500000E+04  0.7818608E-02  0.7223770E-01
         52   -1    0    0    0    0  0.00000000000E+00  0.00000000000E+00  0.64930732323E+04  0.65000000000E+04  0.30000000000E+03 0.  1.
        -52   -1    0    0    0    0 -0.00000000000E+00 -0.00000000000E+00 -0.64930732323E+04  0.65000000000E+04  0.30000000000E+03 0.  1.
     100001    1    1    2    0    0  0.12612747315E+03  0.92850400063E+03 -0.64303438424E+04  0.65000000000E+04  0.15050000000E+03 0.  1.
     100001    1    1    2    0    0 -0.12612747315E+03 -0.92850400063E+03  0.64303438424E+04  0.65000000000E+04  0.15050000000E+03 0.  1.
</event>
<event>
 4    1  0.5640637E-004  0.6500000E+04  0.7818608E-02  0.7223770E-01
         52   -1    0    0    0    0  0.00000000000E+00  0.00000000000E+00  0.64930732323E+04  0.65000000000E+04  0.30000000000E+03 0. -1.
        -52   -1    0    0    0    0 -0.00000000000E+00 -0.00000000000E+00 -0.64930732323E+04  0.65000000000E+04  0.30000000000E+03 0.  1.
     100001    1    1    2    0    0 -0.53906143848E+03  0.60992946841E+03  0.64470728675E+04  0.65000000000E+04  0.15050000000E+03 0. -1.
     100001    1    1    2    0    0  0.53906143848E+03 -0.60992946841E+03 -0.64470728675E+04  0.65000000000E+04  0.15050000000E+03 0.  1.
</event>
<event>
 4    1  0.5640637E-004  0.6500000E+04  0.7818608E-02  0.7223770E-01
         52   -1    0    0    0    0  0.00000000000E+00  0.00000000000E+00  0.64930732323E+04  0.65000000000E+04  0.30000000000E+03 0.  1.
        -52   -1    0    0    0    0 -0.00000000000E+00 -0.00000000000E+00 -0.64930732323E+04  0.65000000000E+04  0.30000000000E+03 0. -1.
     100001    1    1    2    0    0 -0.39394414577E+04  0.40373324376E+04  0.32261583252E+04  0.65000000000E+04  0.15050000000E+03 0.  1.
     100001    1    1    2    0    0  0.39394414577E+04 -0.40373324376E+04 -0.32261583252E+04  0.65000000000E+04  0.15050000000E+03 0. -1.
</event>
<event>
 4    1  0.5640637E-004  0.6500000E+04  0.7818608E-02  0.7223770E-01
         52   -1    0    0    0    0  0.00000000000E+00  0.00000000000E+00  0.64930732323E+04  0.65000000000E+04  0.30000000000E+03 0. -1.
        -52   -1    0    0    0    0 -0.00000000000E+00 -0.00000000000E+00 -0.64930732323E+04  0.65000000000E+04  0.30000000000E+03 0.  1.
     100001    1    1    2    0    0 -0.58296053340E+02 -0.13202593687E+04 -0.63624575849E+04  0.65000000000E+04  0.15050000000E+03 0.  1.
     100001    1    1    2    0    0  0.58296053340E+02  0.13202593687E+04  0.63624575849E+04  0.65000000000E+04  0.15050000000E+03 0. -1.
</event>
<event>
 4    1  0.5640637E-004  0.6500000E+04  0.7818608E-02  0.7223770E-01
         52   -1    0    0    0    0  0.00000000000E+00  0.00000000000E+00  0.64930732323E+04  0.65000000000E+04  0.30000000000E+03 0. -1.
        -52   -1    0    0    0    0 -0.00000000000E+00 -0.00000000000E+00 -0.64930732323E+04  0.65000000000E+04  0.30000000000E+03 0.  1.
     100001    1    1    2    0    0 -0.56498625452E+03 -0.30257725352E+03 -0.64665746178E+04  0.65000000000E+04  0.15050000000E+03 0.  1.
     100001    1    1    2    0    0  0.56498625452E+03  0.30257725352E+03  0.64665746178E+04  0.65000000000E+04  0.15050000000E+03 0. -1.
</event>
<event>
 4    1  0.5640637E-004  0.6500000E+04  0.7818608E-02  0.7223770E-01
         52   -1    0    0    0    0  0.00000000000E+00  0.00000000000E+00  0.64930732323E+04  0.65000000000E+04  0.30000000000E+03 0. -1.
        -52   -1    0    0    0    0 -0.00000000000E+00 -0.00000000000E+00 -0.64930732323E+04  0.65000000000E+04  0.30000000000E+03 0.  1.
     100001    1    1    2    0    0 -0.41807271079E+04 -0.47937059609E+04 -0.13301329859E+04  0.65000000000E+04  0.15050000000E+03 0.  1.
     100001    1    1    2    0    0  0.41807271079E+04  0.47937059609E+04  0.13301329859E+04  0.65000000000E+04  0.15050000000E+03 0. -1.
</event>
<event>
 4    1  0.5640637E-004  0.6500000E+04  0.7818608E-02  0.7223770E-01
         52   -1    0    0    0    0  0.00000000000E+00  0.00000000000E+00  0.64930732323E+04  0.65000000000E+04  0.30000000000E+03 0.  1.
        -52   -1    0    0    0    0 -0.00000000000E+00 -0.00000000000E+00 -0.64930732323E+04  0.65000000000E+04  0.30000000000E+03 0.  1.
     100001    1    1    2    0    0 -0.48028395183E+02 -0.14799922812E+03  0.64963943270E+04  0.65000000000E+04  0.15050000000E+03 0.  1.
     100001    1    1    2    0    0  0.48028395183E+02  0.14799922812E+03 -0.64963943270E+04  0.65000000000E+04  0.15050000000E+03 0.  1.
</event>
<event>
 4    1  0.9808351E-004  0.6500000E+04  0.7818608E-02  0.7223770E-01
         52   -1    0    0    0    0  0.00000000000E+00  0.00000000000E+00  0.64930732323E+04  0.65000000000E+04  0.30000000000E+03 0.  1.
        -52   -1    0    0    0    0 -0.00000000000E+00 -0.00000000000E+00 -0.64930732323E+04  0.65000000000E+04  0.30000000000E+03 0.  1.
     100001    1    1    2    0    0  0.45878750967E+02 -0.50895275244E+02  0.64978961642E+04  0.65000000000E+04  0.15050000000E+03 0.  1.
     100001    1    1    2    0    0 -0.45878750967E+02  0.50895275244E+02 -0.64978961642E+04  0.65000000000E+04  0.15050000000E+03 0.  1.
</event>
<event>
 4    1  0.5640637E-004  0.6500000E+04  0.7818608E-02  0.7223770E-01
         52   -1    0    0    0    0  0.00000000000E+00  0.00000000000E+00  0.64930732323E+04  0.65000000000E+04  0.30000000000E+03 0. -1.
        -52   -1    0    0    0    0 -0.00000000000E+00 -0.00000000000E+00 -0.64930732323E+04  0.65000000000E+04  0.30000000000E+03 0.  1.
     100001    1    1    2    0    0 -0.59863382452E+03  0.68147272744E+03  0.64346392452E+04  0.65000000000E+04  0.15050000000E+03 0. -1.
     100001    1    1    2    0    0  0.59863382452E+03 -0.68147272744E+03 -0.64346392452E+04  0.65000000000E+04  0.15050000000E+03 0.  1.
</event>
<event>
 4    1  0.5640637E-004  0.6500000E+04  0.7818608E-02  0.7223770E-01
         52   -1    0    0    0    0  0.00000000000E+00  0.00000000000E+00  0.64930732323E+04  0.65000000000E+04  0.30000000000E+03 0.  1.
        -52   -1    0    0    0    0 -0.00000000000E+00 -0.00000000000E+00 -0.64930732323E+04  0.65000000000E+04  0.30000000000E+03 0. -1.
     100001    1    1    2    0    0 -0.27768294939E+04 -0.14370718555E+04  0.56966123436E+04  0.65000000000E+04  0.15050000000E+03 0.  1.
     100001    1    1    2    0    0  0.27768294939E+04  0.14370718555E+04 -0.56966123436E+04  0.65000000000E+04  0.15050000000E+03 0. -1.
</event>
<event>
 4    1  0.5640637E-004  0.6500000E+04  0.7818608E-02  0.7223770E-01
         52   -1    0    0    0    0  0.00000000000E+00  0.00000000000E+00  0.64930732323E+04  0.65000000000E+04  0.30000000000E+03 0.  1.
        -52   -1    0    0    0    0 -0.00000000000E+00 -0.00000000000E+00 -0.64930732323E+04  0.65000000000E+04  0.30000000000E+03 0.  1.
     100001    1    1    2    0    0 -0.28870239421E+02  0.30102648953E+03 -0.64912170902E+04  0.65000000000E+04  0.15050000000E+03 0.  1.
     100001    1    1    2    0    0  0.28870239421E+02 -0.30102648953E+03  0.64912170902E+04  0.65000000000E+04  0.15050000000E+03 0.  1.
</event>
<event>
 4    1  0.9482832E-004  0.6500000E+04  0.7818608E-02  0.7223770E-01
         52   -1    0    0    0    0  0.00000000000E+00  0.00000000000E+00  0.64930732323E+04  0.65000000000E+04  0.30000000000E+03 0. -1.
        -52   -1    0    0    0    0 -0.00000000000E+00 -0.00000000000E+00 -0.64930732323E+04  0.65000000000E+04  0.30000000000E+03 0. -1.
     100001    1    1    2    0    0 -0.32925698398E+02 -0.31383309520E+02 -0.64980982400E+04  0.65000000000E+04  0.15050000000E+03 0. -1.
     100001    1    1    2    0    0  0.32925698398E+02  0.31383309520E+02  0.64980982400E+04  0.65000000000E+04  0.15050000000E+03 0. -1.
</event>
<event>
 4    1  0.5640637E-004  0.6500000E+04  0.7818608E-02  0.7223770E-01
         52   -1    0    0    0    0  0.00000000000E+00  0.00000000000E+00  0.64930732323E+04  0.65000000000E+04  0.30000000000E+03 0.  1.
        -52   -1    0    0    0    0 -0.00000000000E+00 -0.00000000000E+00 -0.64930732323E+04  0.65000000000E+04  0.30000000000E+03 0. -1.
     100001    1    1    2    0    0  0.48677173420E+03 -0.27212833880E+03  0.64742836821E+04  0.65000000000E+04  0.15050000000E+03 0.  1.
     100001    1    1    2    0    0 -0.48677173420E+03  0.27212833880E+03 -0.64742836821E+04  0.65000000000E+04  0.15050000000E+03 0. -1.
</event>
<event>
 4    1  0.5640637E-004  0.6500000E+04  0.7818608E-02  0.7223770E-01
         52   -1    0    0    0    0  0.00000000000E+00  0.00000000000E+00  0.64930732323E+04  0.65000000000E+04  0.30000000000E+03 0. -1.
        -52   -1    0    0    0    0 -0.00000000000E+00 -0.00000000000E+00 -0.64930732323E+04  0.65000000000E+04  0.30000000000E+03 0.  1.
     100001    1    1    2    0    0 -0.14890624136E+04 -0.12345771733E+04 -0.62036974524E+04  0.65000000000E+04  0.15050000000E+03 0.  1.
     100001    1    1    2    0    0  0.14890624136E+04  0.12345771733E+04  0.62036974524E+04  0.65000000000E+04  0.15050000000E+03 0. -1.
</event>
<event>
 4    1  0.5640637E-004  0.6500000E+04  0.7818608E-02  0.7223770E-01
         52   -1    0    0    0    0  0.00000000000E+00  0.00000000000E+00  0.64930732323E+04  0.65000000000E+04  0.30000000000E+03 0. -1.
        -52   -1    0    0    0    0 -0.00000000000E+00 -0.00000000000E+00 -0.64930732323E+04  0.65000000000E+04  0.30000000000E+03 0.  1.
     100001    1    1    2    0    0 -0.37581356049E+04  0.52234783356E+04  0.90500862028E+03  0.65000000000E+04  0.15050000000E+03 0. -1.
     100001    1    1    2    0    0  0.37581356049E+04 -0.52234783356E+04 -0.90500862028E+03  0.65000000000E+04  0.15050000000E+03 0.  1.
</event>
<event>
 4    1  0.5640637E-004  0.6500000E+04  0.7818608E-02  0.7223770E-01
         52   -1    0    0    0    0  0.00000000000E+00  0.00000000000E+00  0.64930732323E+04  0.65000000000E+04  0.30000000000E+03 0.  1.
        -52   -1    0    0    0    0 -0.00000000000E+00 -0.00000000000E+00 -0.64930732323E+04  0.65000000000E+04  0.30000000000E+03 0. -1.
     100001    1    1    2    0    0  0.70132909832E+03  0.19645968254E+03 -0.64573129736E+04  0.65000000000E+04  0.15050000000E+03 0. -1.
     100001    1    1    2    0    0 -0.70132909832E+03 -0.19645968254E+03  0.64573129736E+04  0.65000000000E+04  0.15050000000E+03 0.  1.
</event>
<event>
 4    1  0.5640637E-004  0.6500000E+04  0.7818608E-02  0.7223770E-01
         52   -1    0    0    0    0  0.00000000000E+00  0.00000000000E+00  0.64930732323E+04  0.65000000000E+04  0.30000000000E+03 0. -1.
        -52   -1    0    0    0    0 -0.00000000000E+00 -0.00000000000E+00 -0.64930732323E+04  0.65000000000E+04  0.30000000000E+03 0.  1.
     100001    1    1    2    0    0 -0.53276513061E+02 -0.14046982851E+04 -0.63443939104E+04  0.65000000000E+04  0.15050000000E+03 0.  1.
     100001    1    1    2    0    0  0.53276513061E+02  0.14046982851E+04  0.63443939104E+04  0.65000000000E+04  0.15050000000E+03 0. -1.
</event>
<event>
 4    1  0.5640637E-004  0.6500000E+04  0.7818608E-02  0.7223770E-01
         52   -1    0    0    0    0  0.00000000000E+00  0.00000000000E+00  0.64930732323E+04  0.65000000000E+04  0.30000000000E+03 0. -1.
        -52   -1    0    0    0    0 -0.00000000000E+00 -0.00000000000E+00 -0.64930732323E+04  0.65000000000E+04  0.30000000000E+03 0.  1.
     100001    1    1    2    0    0  0.11066351168E+03  0.42077955961E+03 -0.64836754931E+04  0.65000000000E+04  0.15050000000E+03 0.  1.
     100001    1    1    2    0    0 -0.11066351168E+03 -0.42077955961E+03  0.64836754931E+04  0.65000000000E+04  0.15050000000E+03 0. -1.
</event>
<event>
 4    1  0.5640637E-004  0.6500000E+04  0.7818608E-02  0.7223770E-01
         52   -1    0    0    0    0  0.00000000000E+00  0.00000000000E+00  0.64930732323E+04  0.65000000000E+04  0.30000000000E+03 0. -1.
        -52   -1    0    0    0    0 -0.00000000000E+00 -0.00000000000E+00 -0.64930732323E+04  0.65000000000E+04  0.30000000000E+03 0.  1.
     100001    1    1    2    0    0 -0.51718303960E+04  0.25784659730E+04 -0.29717054582E+04  0.65000000000E+04  0.15050000000E+03 0.  1.
     100001    1    1    2    0    0  0.51718303960E+04 -0.25784659730E+04  0.29717054582E+04  0.65000000000E+04  0.15050000000E+03 0. -1.
</event>
<event>
 4    1  0.5640637E-004  0.6500000E+04  0.7818608E-02  0.7223770E-01
         52   -1    0    0    0    0  0.00000000000E+00  0.00000000000E+00  0.64930732323E+04  0.65000000000E+04  0.30000000000E+03 0.  1.
        -52   -1    0    0    0    0 -0.00000000000E+00 -0.00000000000E+00 -0.64930732323E+04  0.65000000000E+04  0.30000000000E+03 0. -1.
     100001    1    1    2    0    0  0.15904620008E+04  0.86729096924E+03 -0.62406399310E+04  0.65000000000E+04  0.15050000000E+03 0. -1.
     100001    1    1    2    0    0 -0.15904620008E+04 -0.86729096924E+03  0.62406399310E+04  0.65000000000E+04  0.15050000000E+03 0.  1.
</event>
<event>
 4    1  0.5640637E-004  0.6500000E+04  0.7818608E-02  0.7223770E-01
         52   -1    0    0    0    0  0.00000000000E+00  0.00000000000E+00  0.64930732323E+04  0.65000000000E+04  0.30000000000E+03 0.  1.
        -52   -1    0    0    0    0 -0.00000000000E+00 -0.00000000000E+00 -0.64930732323E+04  0.65000000000E+04  0.30000000000E+03 0. -1.
     100001    1    1    2    0    0 -0.13517694429E+04 -0.57185692891E+04  0.27745331875E+04  0.65000000000E+04  0.15050000000E+03 0.  1.
     100001    1    1    2    0    0  0.13517694429E+04  0.57185692891E+04 -0.27745331875E+04  0.65000000000E+04  0.15050000000E+03 0. -1.
</event>
<event>
 4    1  0.5640637E-004  0.6500000E+04  0.7818608E-02  0.7223770E-01
         52   -1    0    0    0    0  0.00000000000E+00  0.00000000000E+00  0.64930732323E+04  0.65000000000E+04  0.30000000000E+03 0. -1.
        -52   -1    0    0    0    0 -0.00000000000E+00 -0.00000000000E+00 -0.64930732323E+04  0.65000000000E+04  0.30000000000E+03 0. -1.
     100001    1    1    2    0    0  0.36320600726E+03  0.53823776765E+03  0.64657351672E+04  0.65000000000E+04  0.15050000000E+03 0. -1.
     100001    1    1    2    0    0 -0.36320600726E+03 -0.53823776765E+03 -0.64657351672E+04  0.65000000000E+04  0.15050000000E+03 0. -1.
</event>
<event>
 4    1  0.5640637E-004  0.6500000E+04  0.7818608E-02  0.7223770E-01
         52   -1    0    0    0    0  0.00000000000E+00  0.00000000000E+00  0.64930732323E+04  0.65000000000E+04  0.30000000000E+03 0.  1.
        -52   -1    0    0    0    0 -0.00000000000E+00 -0.00000000000E+00 -0.64930732323E+04  0.65000000000E+04  0.30000000000E+03 0. -1.
     100001    1    1    2    0    0  0.12522553526E+04 -0.19514484702E+04 -0.60705069928E+04  0.65000000000E+04  0.15050000000E+03 0. -1.
     100001    1    1    2    0    0 -0.12522553526E+04  0.19514484702E+04  0.60705069928E+04  0.65000000000E+04  0.15050000000E+03 0.  1.
</event>
<event>
 4    1  0.5640637E-004  0.6500000E+04  0.7818608E-02  0.7223770E-01
         52   -1    0    0    0    0  0.00000000000E+00  0.00000000000E+00  0.64930732323E+04  0.65000000000E+04  0.30000000000E+03 0. -1.
        -52   -1    0    0    0    0 -0.00000000000E+00 -0.00000000000E+00 -0.64930732323E+04  0.65000000000E+04  0.30000000000E+03 0.  1.
     100001    1    1    2    0    0  0.17990171960E+04  0.37570569463E+04  0.49875254366E+04  0.65000000000E+04  0.15050000000E+03 0. -1.
     100001    1    1    2    0    0 -0.17990171960E+04 -0.37570569463E+04 -0.49875254366E+04  0.65000000000E+04  0.15050000000E+03 0.  1.
</event>
<event>
 4    1  0.6713620E-004  0.6500000E+04  0.7818608E-02  0.7223770E-01
         52   -1    0    0    0    0  0.00000000000E+00  0.00000000000E+00  0.64930732323E+04  0.65000000000E+04  0.30000000000E+03 0.  1.
        -52   -1    0    0    0    0 -0.00000000000E+00 -0.00000000000E+00 -0.64930732323E+04  0.65000000000E+04  0.30000000000E+03 0.  1.
     100001    1    1    2    0    0 -0.21077474165E+03  0.95116910163E+02 -0.64941417086E+04  0.65000000000E+04  0.15050000000E+03 0.  1.
     100001    1    1    2    0    0  0.21077474165E+03 -0.95116910163E+02  0.64941417086E+04  0.65000000000E+04  0.15050000000E+03 0.  1.
</event>
<event>
 4    1  0.5640637E-004  0.6500000E+04  0.7818608E-02  0.7223770E-01
         52   -1    0    0    0    0  0.00000000000E+00  0.00000000000E+00  0.64930732323E+04  0.65000000000E+04  0.30000000000E+03 0.  1.
        -52   -1    0    0    0    0 -0.00000000000E+00 -0.00000000000E+00 -0.64930732323E+04  0.65000000000E+04  0.30000000000E+03 0. -1.
     100001    1    1    2    0    0  0.41069239347E+03  0.10191637654E+04  0.64046847485E+04  0.65000000000E+04  0.15050000000E+03 0.  1.
     100001    1    1    2    0    0 -0.41069239347E+03 -0.10191637654E+04 -0.64046847485E+04  0.65000000000E+04  0.15050000000E+03 0. -1.
</event>
<event>
 4    1  0.5640637E-004  0.6500000E+04  0.7818608E-02  0.7223770E-01
         52   -1    0    0    0    0  0.00000000000E+00  0.00000000000E+00  0.64930732323E+04  0.65000000000E+04  0.30000000000E+03 0. -1.
        -52   -1    0    0    0    0 -0.00000000000E+00 -0.00000000000E+00 -0.64930732323E+04  0.65000000000E+04  0.30000000000E+03 0.  1.
     100001    1    1    2    0    0 -0.29160491097E+03  0.37786878698E+02  0.64916013801E+04  0.65000000000E+04  0.15050000000E+03 0. -1.
     100001    1    1    2    0    0  0.29160491097E+03 -0.37786878698E+02 -0.64916013801E+04  0.65000000000E+04  0.15050000000E+03 0.  1.
</event>
<event>
 4    1  0.5640637E-004  0.6500000E+04  0.7818608E-02  0.7223770E-01
         52   -1    0    0    0    0  0.00000000000E+00  0.00000000000E+00  0.64930732323E+04  0.65000000000E+04  0.30000000000E+03 0. -1.
        -52   -1    0    0    0    0 -0.00000000000E+00 -0.00000000000E+00 -0.64930732323E+04  0.65000000000E+04  0.30000000000E+03 0.  1.
     100001    1    1    2    0    0  0.39991516407E+04  0.39771639684E+04  0.32274297316E+04  0.65000000000E+04  0.15050000000E+03 0. -1.
     100001    1    1    2    0    0 -0.39991516407E+04 -0.39771639684E+04 -0.32274297316E+04  0.65000000000E+04  0.15050000000E+03 0.  1.
</event>
<event>
 4    1  0.5640637E-004  0.6500000E+04  0.7818608E-02  0.7223770E-01
         52   -1    0    0    0    0  0.00000000000E+00  0.00000000000E+00  0.64930732323E+04  0.65000000000E+04  0.30000000000E+03 0. -1.
        -52   -1    0    0    0    0 -0.00000000000E+00 -0.00000000000E+00 -0.64930732323E+04  0.65000000000E+04  0.30000000000E+03 0.  1.
     100001    1    1    2    0    0 -0.25138196515E+04 -0.29188377847E+04 -0.52333972233E+04  0.65000000000E+04  0.15050000000E+03 0.  1.
     100001    1    1    2    0    0  0.25138196515E+04  0.29188377847E+04  0.52333972233E+04  0.65000000000E+04  0.15050000000E+03 0. -1.
</event>
<event>
 4    1  0.5640637E-004  0.6500000E+04  0.7818608E-02  0.7223770E-01
         52   -1    0    0    0    0  0.00000000000E+00  0.00000000000E+00  0.64930732323E+04  0.65000000000E+04  0.30000000000E+03 0.  1.
        -52   -1    0    0    0    0 -0.00000000000E+00 -0.00000000000E+00 -0.64930732323E+04  0.65000000000E+04  0.30000000000E+03 0. -1.
     100001    1    1    2    0    0 -0.38097569798E+04 -0.16352417809E+03 -0.52617830959E+04  0.65000000000E+04  0.15050000000E+03 0. -1.
     100001    1    1    2    0    0  0.38097569798E+04  0.16352417809E+03  0.52617830959E+04  0.65000000000E+04  0.15050000000E+03 0.  1.
</event>
<event>
 4    1  0.5640637E-004  0.6500000E+04  0.7818608E-02  0.7223770E-01
         52   -1    0    0    0    0  0.00000000000E+00  0.00000000000E+00  0.64930732323E+04  0.65000000000E+04  0.30000000000E+03 0. -1.
        -52   -1    0    0    0    0 -0.00000000000E+00 -0.00000000000E+00 -0.64930732323E+04  0.65000000000E+04  0.30000000000E+03 0. -1.
     100001    1    1    2    0    0 -0.38427082914E+03  0.10943287333E+03 -0.64859625443E+04  0.65000000000E+04  0.15050000000E+03 0. -1.
     100001    1    1    2    0    0  0.38427082914E+03 -0.10943287333E+03  0.64859625443E+04  0.65000000000E+04  0.15050000000E+03 0. -1.
</event>
<event>
 4    1  0.5640637E-004  0.6500000E+04  0.7818608E-02  0.7223770E-01
         52   -1    0    0    0    0  0.00000000000E+00  0.00000000000E+00  0.64930732323E+04  0.65000000000E+04  0.30000000000E+03 0. -1.
        -52   -1    0    0    0    0 -0.00000000000E+00 -0.00000000000E+00 -0.64930732323E+04  0.65000000000E+04  0.30000000000E+03 0.  1.
     100001    1    1    2    0    0 -0.72601620644E+03  0.35036479446E+04  0.54244540092E+04  0.65000000000E+04  0.15050000000E+03 0. -1.
     100001    1    1    2    0    0  0.72601620644E+03 -0.35036479446E+04 -0.54244540092E+04  0.65000000000E+04  0.15050000000E+03 0.  1.
</event>
<event>
 4    1  0.5640637E-004  0.6500000E+04  0.7818608E-02  0.7223770E-01
         52   -1    0    0    0    0  0.00000000000E+00  0.00000000000E+00  0.64930732323E+04  0.65000000000E+04  0.30000000000E+03 0. -1.
        -52   -1    0    0    0    0 -0.00000000000E+00 -0.00000000000E+00 -0.64930732323E+04  0.65000000000E+04  0.30000000000E+03 0.  1.
     100001    1    1    2    0    0  0.16230153484E+04  0.23175731270E+04  0.58499594640E+04  0.65000000000E+04  0.15050000000E+03 0. -1.
     100001    1    1    2    0    0 -0.16230153484E+04 -0.23175731270E+04 -0.58499594640E+04  0.65000000000E+04  0.15050000000E+03 0.  1.
</event>
<event>
 4    1  0.5640637E-004  0.6500000E+04  0.7818608E-02  0.7223770E-01
         52   -1    0    0    0    0  0.00000000000E+00  0.00000000000E+00  0.64930732323E+04  0.65000000000E+04  0.30000000000E+03 0.  1.
        -52   -1    0    0    0    0 -0.00000000000E+00 -0.00000000000E+00 -0.64930732323E+04  0.65000000000E+04  0.30000000000E+03 0. -1.
     100001    1    1    2    0    0 -0.27392392213E+04 -0.21983501072E+04 -0.54672822357E+04  0.65000000000E+04  0.15050000000E+03 0. -1.
     100001    1    1    2    0    0  0.27392392213E+04  0.21983501072E+04  0.54672822357E+04  0.65000000000E+04  0.15050000000E+03 0.  1.
</event>
<event>
 4    1  0.5640637E-004  0.6500000E+04  0.7818608E-02  0.7223770E-01
         52   -1    0    0    0    0  0.00000000000E+00  0.00000000000E+00  0.64930732323E+04  0.65000000000E+04  0.30000000000E+03 0.  1.
        -52   -1    0    0    0    0 -0.00000000000E+00 -0.00000000000E+00 -0.64930732323E+04  0.65000000000E+04  0.30000000000E+03 0.  1.
     100001    1    1    2    0    0  0.23935754616E+04 -0.22734462547E+04  0.55972840187E+04  0.65000000000E+04  0.15050000000E+03 0.  1.
     100001    1    1    2    0    0 -0.23935754616E+04  0.22734462547E+04 -0.55972840187E+04  0.65000000000E+04  0.15050000000E+03 0.  1.
</event>
<event>
 4    1  0.5640637E-004  0.6500000E+04  0.7818608E-02  0.7223770E-01
         52   -1    0    0    0    0  0.00000000000E+00  0.00000000000E+00  0.64930732323E+04  0.65000000000E+04  0.30000000000E+03 0.  1.
        -52   -1    0    0    0    0 -0.00000000000E+00 -0.00000000000E+00 -0.64930732323E+04  0.65000000000E+04  0.30000000000E+03 0. -1.
     100001    1    1    2    0    0 -0.15514280679E+04  0.29496801581E+04 -0.55785130335E+04  0.65000000000E+04  0.15050000000E+03 0. -1.
     100001    1    1    2    0    0  0.15514280679E+04 -0.29496801581E+04  0.55785130335E+04  0.65000000000E+04  0.15050000000E+03 0.  1.
</event>
<event>
 4    1  0.5640637E-004  0.6500000E+04  0.7818608E-02  0.7223770E-01
         52   -1    0    0    0    0  0.00000000000E+00  0.00000000000E+00  0.64930732323E+04  0.65000000000E+04  0.30000000000E+03 0. -1.
        -52   -1    0    0    0    0 -0.00000000000E+00 -0.00000000000E+00 -0.64930732323E+04  0.65000000000E+04  0.30000000000E+03 0.  1.
     100001    1    1    2    0    0  0.42901677006E+04  0.44490022083E+04  0.20070351769E+04  0.65000000000E+04  0.15050000000E+03 0.  1.
     100001    1    1    2    0    0 -0.42901677006E+04 -0.44490022083E+04 -0.20070351769E+04  0.65000000000E+04  0.15050000000E+03 0. -1.
</event>
<event>
 4    1  0.5640637E-004  0.6500000E+04  0.7818608E-02  0.7223770E-01
         52   -1    0    0    0    0  0.00000000000E+00  0.00000000000E+00  0.64930732323E+04  0.65000000000E+04  0.30000000000E+03 0.  1.
        -52   -1    0    0    0    0 -0.00000000000E+00 -0.00000000000E+00 -0.64930732323E+04  0.65000000000E+04  0.30000000000E+03 0. -1.
     100001    1    1    2    0    0 -0.14030101412E+04  0.53271791441E+04  0.34467484184E+04  0.65000000000E+04  0.15050000000E+03 0.  1.
     100001    1    1    2    0    0  0.14030101412E+04 -0.53271791441E+04 -0.34467484184E+04  0.65000000000E+04  0.15050000000E+03 0. -1.
</event>
<event>
 4    1  0.5640637E-004  0.6500000E+04  0.7818608E-02  0.7223770E-01
         52   -1    0    0    0    0  0.00000000000E+00  0.00000000000E+00  0.64930732323E+04  0.65000000000E+04  0.30000000000E+03 0.  1.
        -52   -1    0    0    0    0 -0.00000000000E+00 -0.00000000000E+00 -0.64930732323E+04  0.65000000000E+04  0.30000000000E+03 0. -1.
     100001    1    1    2    0    0 -0.43022929052E+04  0.22950179161E+04 -0.42954066482E+04  0.65000000000E+04  0.15050000000E+03 0. -1.
     100001    1    1    2    0    0  0.43022929052E+04 -0.22950179161E+04  0.42954066482E+04  0.65000000000E+04  0.15050000000E+03 0.  1.
</event>
<event>
 4    1  0.5640637E-004  0.6500000E+04  0.7818608E-02  0.7223770E-01
         52   -1    0    0    0    0  0.00000000000E+00  0.00000000000E+00  0.64930732323E+04  0.65000000000E+04  0.30000000000E+03 0. -1.
        -52   -1    0    0    0    0 -0.00000000000E+00 -0.00000000000E+00 -0.64930732323E+04  0.65000000000E+04  0.30000000000E+03 0.  1.
     100001    1    1    2    0    0 -0.50865975663E+04  0.12953563589E+04  0.38309172338E+04  0.65000000000E+04  0.15050000000E+03 0. -1.
     100001    1    1    2    0    0  0.50865975663E+04 -0.12953563589E+04 -0.38309172338E+04  0.65000000000E+04  0.15050000000E+03 0.  1.
</event>
<event>
 4    1  0.5640637E-004  0.6500000E+04  0.7818608E-02  0.7223770E-01
         52   -1    0    0    0    0  0.00000000000E+00  0.00000000000E+00  0.64930732323E+04  0.65000000000E+04  0.30000000000E+03 0.  1.
        -52   -1    0    0    0    0 -0.00000000000E+00 -0.00000000000E+00 -0.64930732323E+04  0.65000000000E+04  0.30000000000E+03 0. -1.
     100001    1    1    2    0    0  0.51151833573E+03 -0.14106378442E+04  0.63226418224E+04  0.65000000000E+04  0.15050000000E+03 0.  1.
     100001    1    1    2    0    0 -0.51151833573E+03  0.14106378442E+04 -0.63226418224E+04  0.65000000000E+04  0.15050000000E+03 0. -1.
</event>
<event>
 4    1  0.5640637E-004  0.6500000E+04  0.7818608E-02  0.7223770E-01
         52   -1    0    0    0    0  0.00000000000E+00  0.00000000000E+00  0.64930732323E+04  0.65000000000E+04  0.30000000000E+03 0.  1.
        -52   -1    0    0    0    0 -0.00000000000E+00 -0.00000000000E+00 -0.64930732323E+04  0.65000000000E+04  0.30000000000E+03 0. -1.
     100001    1    1    2    0    0 -0.21055709974E+04  0.50537764097E+04  0.35004663298E+04  0.65000000000E+04  0.15050000000E+03 0.  1.
     100001    1    1    2    0    0  0.21055709974E+04 -0.50537764097E+04 -0.35004663298E+04  0.65000000000E+04  0.15050000000E+03 0. -1.
</event>
<event>
 4    1  0.5640637E-004  0.6500000E+04  0.7818608E-02  0.7223770E-01
         52   -1    0    0    0    0  0.00000000000E+00  0.00000000000E+00  0.64930732323E+04  0.65000000000E+04  0.30000000000E+03 0. -1.
        -52   -1    0    0    0    0 -0.00000000000E+00 -0.00000000000E+00 -0.64930732323E+04  0.65000000000E+04  0.30000000000E+03 0. -1.
     100001    1    1    2    0    0 -0.51967049084E+02  0.12712795795E+03  0.64968059582E+04  0.65000000000E+04  0.15050000000E+03 0. -1.
     100001    1    1    2    0    0  0.51967049084E+02 -0.12712795795E+03 -0.64968059582E+04  0.65000000000E+04  0.15050000000E+03 0. -1.
</event>
<event>
 4    1  0.5640637E-004  0.6500000E+04  0.7818608E-02  0.7223770E-01
         52   -1    0    0    0    0  0.00000000000E+00  0.00000000000E+00  0.64930732323E+04  0.65000000000E+04  0.30000000000E+03 0.  1.
        -52   -1    0    0    0    0 -0.00000000000E+00 -0.00000000000E+00 -0.64930732323E+04  0.65000000000E+04  0.30000000000E+03 0. -1.
     100001    1    1    2    0    0  0.37961404203E+03 -0.73511046826E+03  0.64453747392E+04  0.65000000000E+04  0.15050000000E+03 0.  1.
     100001    1    1    2    0    0 -0.37961404203E+03  0.73511046826E+03 -0.64453747392E+04  0.65000000000E+04  0.15050000000E+03 0. -1.
</event>
<event>
 4    1  0.5640637E-004  0.6500000E+04  0.7818608E-02  0.7223770E-01
         52   -1    0    0    0    0  0.00000000000E+00  0.00000000000E+00  0.64930732323E+04  0.65000000000E+04  0.30000000000E+03 0.  1.
        -52   -1    0    0    0    0 -0.00000000000E+00 -0.00000000000E+00 -0.64930732323E+04  0.65000000000E+04  0.30000000000E+03 0. -1.
     100001    1    1    2    0    0  0.30495567123E+04 -0.32266287464E+04  0.47451470516E+04  0.65000000000E+04  0.15050000000E+03 0.  1.
     100001    1    1    2    0    0 -0.30495567123E+04  0.32266287464E+04 -0.47451470516E+04  0.65000000000E+04  0.15050000000E+03 0. -1.
</event>
<event>
 4    1  0.5640637E-004  0.6500000E+04  0.7818608E-02  0.7223770E-01
         52   -1    0    0    0    0  0.00000000000E+00  0.00000000000E+00  0.64930732323E+04  0.65000000000E+04  0.30000000000E+03 0.  1.
        -52   -1    0    0    0    0 -0.00000000000E+00 -0.00000000000E+00 -0.64930732323E+04  0.65000000000E+04  0.30000000000E+03 0. -1.
     100001    1    1    2    0    0 -0.38543058807E+04  0.51733287879E+04  0.77996485798E+03  0.65000000000E+04  0.15050000000E+03 0.  1.
     100001    1    1    2    0    0  0.38543058807E+04 -0.51733287879E+04 -0.77996485798E+03  0.65000000000E+04  0.15050000000E+03 0. -1.
</event>
<event>
 4    1  0.5640637E-004  0.6500000E+04  0.7818608E-02  0.7223770E-01
         52   -1    0    0    0    0  0.00000000000E+00  0.00000000000E+00  0.64930732323E+04  0.65000000000E+04  0.30000000000E+03 0. -1.
        -52   -1    0    0    0    0 -0.00000000000E+00 -0.00000000000E+00 -0.64930732323E+04  0.65000000000E+04  0.30000000000E+03 0. -1.
     100001    1    1    2    0    0 -0.99613273031E+03  0.27007958819E+03 -0.64157716878E+04  0.65000000000E+04  0.15050000000E+03 0. -1.
     100001    1    1    2    0    0  0.99613273031E+03 -0.27007958819E+03  0.64157716878E+04  0.65000000000E+04  0.15050000000E+03 0. -1.
</event>
<event>
 4    1  0.5640637E-004  0.6500000E+04  0.7818608E-02  0.7223770E-01
         52   -1    0    0    0    0  0.00000000000E+00  0.00000000000E+00  0.64930732323E+04  0.65000000000E+04  0.30000000000E+03 0.  1.
        -52   -1    0    0    0    0 -0.00000000000E+00 -0.00000000000E+00 -0.64930732323E+04  0.65000000000E+04  0.30000000000E+03 0. -1.
     100001    1    1    2    0    0  0.51842566087E+03  0.11072844607E+04 -0.63822022615E+04  0.65000000000E+04  0.15050000000E+03 0. -1.
     100001    1    1    2    0    0 -0.51842566087E+03 -0.11072844607E+04  0.63822022615E+04  0.65000000000E+04  0.15050000000E+03 0.  1.
</event>
<event>
 4    1  0.5640637E-004  0.6500000E+04  0.7818608E-02  0.7223770E-01
         52   -1    0    0    0    0  0.00000000000E+00  0.00000000000E+00  0.64930732323E+04  0.65000000000E+04  0.30000000000E+03 0. -1.
        -52   -1    0    0    0    0 -0.00000000000E+00 -0.00000000000E+00 -0.64930732323E+04  0.65000000000E+04  0.30000000000E+03 0. -1.
     100001    1    1    2    0    0  0.24250357644E+03  0.15030381087E+03 -0.64919912608E+04  0.65000000000E+04  0.15050000000E+03 0. -1.
     100001    1    1    2    0    0 -0.24250357644E+03 -0.15030381087E+03  0.64919912608E+04  0.65000000000E+04  0.15050000000E+03 0. -1.
</event>
<event>
 4    1  0.5640637E-004  0.6500000E+04  0.7818608E-02  0.7223770E-01
         52   -1    0    0    0    0  0.00000000000E+00  0.00000000000E+00  0.64930732323E+04  0.65000000000E+04  0.30000000000E+03 0. -1.
        -52   -1    0    0    0    0 -0.00000000000E+00 -0.00000000000E+00 -0.64930732323E+04  0.65000000000E+04  0.30000000000E+03 0.  1.
     100001    1    1    2    0    0 -0.63340769858E+03  0.14783344205E+04 -0.62960838446E+04  0.65000000000E+04  0.15050000000E+03 0.  1.
     100001    1    1    2    0    0  0.63340769858E+03 -0.14783344205E+04  0.62960838446E+04  0.65000000000E+04  0.15050000000E+03 0. -1.
</event>
<event>
 4    1  0.5640637E-004  0.6500000E+04  0.7818608E-02  0.7223770E-01
         52   -1    0    0    0    0  0.00000000000E+00  0.00000000000E+00  0.64930732323E+04  0.65000000000E+04  0.30000000000E+03 0. -1.
        -52   -1    0    0    0    0 -0.00000000000E+00 -0.00000000000E+00 -0.64930732323E+04  0.65000000000E+04  0.30000000000E+03 0.  1.
     100001    1    1    2    0    0 -0.11818794304E+04  0.20538985003E+04  0.60507860409E+04  0.65000000000E+04  0.15050000000E+03 0. -1.
     100001    1    1    2    0    0  0.11818794304E+04 -0.20538985003E+04 -0.60507860409E+04  0.65000000000E+04  0.15050000000E+03 0.  1.
</event>
<event>
 4    1  0.5640637E-004  0.6500000E+04  0.7818608E-02  0.7223770E-01
         52   -1    0    0    0    0  0.00000000000E+00  0.00000000000E+00  0.64930732323E+04  0.65000000000E+04  0.30000000000E+03 0. -1.
        -52   -1    0    0    0    0 -0.00000000000E+00 -0.00000000000E+00 -0.64930732323E+04  0.65000000000E+04  0.30000000000E+03 0.  1.
     100001    1    1    2    0    0 -0.17390601368E+03  0.28836054056E+04 -0.58208183542E+04  0.65000000000E+04  0.15050000000E+03 0.  1.
     100001    1    1    2    0    0  0.17390601368E+03 -0.28836054056E+04  0.58208183542E+04  0.65000000000E+04  0.15050000000E+03 0. -1.
</event>
<event>
 4    1  0.5640637E-004  0.6500000E+04  0.7818608E-02  0.7223770E-01
         52   -1    0    0    0    0  0.00000000000E+00  0.00000000000E+00  0.64930732323E+04  0.65000000000E+04  0.30000000000E+03 0.  1.
        -52   -1    0    0    0    0 -0.00000000000E+00 -0.00000000000E+00 -0.64930732323E+04  0.65000000000E+04  0.30000000000E+03 0. -1.
     100001    1    1    2    0    0  0.31870541052E+04  0.46316482069E+03  0.56440689426E+04  0.65000000000E+04  0.15050000000E+03 0.  1.
     100001    1    1    2    0    0 -0.31870541052E+04 -0.46316482069E+03 -0.56440689426E+04  0.65000000000E+04  0.15050000000E+03 0. -1.
</event>
<event>
 4    1  0.5640637E-004  0.6500000E+04  0.7818608E-02  0.7223770E-01
         52   -1    0    0    0    0  0.00000000000E+00  0.00000000000E+00  0.64930732323E+04  0.65000000000E+04  0.30000000000E+03 0.  1.
        -52   -1    0    0    0    0 -0.00000000000E+00 -0.00000000000E+00 -0.64930732323E+04  0.65000000000E+04  0.30000000000E+03 0. -1.
     100001    1    1    2    0    0  0.34525883298E+03 -0.18873841444E+03 -0.64863336253E+04  0.65000000000E+04  0.15050000000E+03 0. -1.
     100001    1    1    2    0    0 -0.34525883298E+03  0.18873841444E+03  0.64863336253E+04  0.65000000000E+04  0.15050000000E+03 0.  1.
</event>
<event>
 4    1  0.5640637E-004  0.6500000E+04  0.7818608E-02  0.7223770E-01
         52   -1    0    0    0    0  0.00000000000E+00  0.00000000000E+00  0.64930732323E+04  0.65000000000E+04  0.30000000000E+03 0.  1.
        -52   -1    0    0    0    0 -0.00000000000E+00 -0.00000000000E+00 -0.64930732323E+04  0.65000000000E+04  0.30000000000E+03 0. -1.
     100001    1    1    2    0    0  0.28229685433E+04  0.31976791503E+03  0.58443089270E+04  0.65000000000E+04  0.15050000000E+03 0.  1.
     100001    1    1    2    0    0 -0.28229685433E+04 -0.31976791503E+03 -0.58443089270E+04  0.65000000000E+04  0.15050000000E+03 0. -1.
</event>
<event>
 4    1  0.5640637E-004  0.6500000E+04  0.7818608E-02  0.7223770E-01
         52   -1    0    0    0    0  0.00000000000E+00  0.00000000000E+00  0.64930732323E+04  0.65000000000E+04  0.30000000000E+03 0.  1.
        -52   -1    0    0    0    0 -0.00000000000E+00 -0.00000000000E+00 -0.64930732323E+04  0.65000000000E+04  0.30000000000E+03 0. -1.
     100001    1    1    2    0    0 -0.29720943589E+04 -0.14272316854E+03  0.57769918616E+04  0.65000000000E+04  0.15050000000E+03 0.  1.
     100001    1    1    2    0    0  0.29720943589E+04  0.14272316854E+03 -0.57769918616E+04  0.65000000000E+04  0.15050000000E+03 0. -1.
</event>
<event>
 4    1  0.5640637E-004  0.6500000E+04  0.7818608E-02  0.7223770E-01
         52   -1    0    0    0    0  0.00000000000E+00  0.00000000000E+00  0.64930732323E+04  0.65000000000E+04  0.30000000000E+03 0. -1.
        -52   -1    0    0    0    0 -0.00000000000E+00 -0.00000000000E+00 -0.64930732323E+04  0.65000000000E+04  0.30000000000E+03 0.  1.
     100001    1    1    2    0    0  0.14245544615E+04  0.32564766262E+04  0.54399774190E+04  0.65000000000E+04  0.15050000000E+03 0. -1.
     100001    1    1    2    0    0 -0.14245544615E+04 -0.32564766262E+04 -0.54399774190E+04  0.65000000000E+04  0.15050000000E+03 0.  1.
</event>
<event>
 4    1  0.5640637E-004  0.6500000E+04  0.7818608E-02  0.7223770E-01
         52   -1    0    0    0    0  0.00000000000E+00  0.00000000000E+00  0.64930732323E+04  0.65000000000E+04  0.30000000000E+03 0. -1.
        -52   -1    0    0    0    0 -0.00000000000E+00 -0.00000000000E+00 -0.64930732323E+04  0.65000000000E+04  0.30000000000E+03 0.  1.
     100001    1    1    2    0    0  0.48223110611E+03 -0.38438143607E+04 -0.52172688325E+04  0.65000000000E+04  0.15050000000E+03 0.  1.
     100001    1    1    2    0    0 -0.48223110611E+03  0.38438143607E+04  0.52172688325E+04  0.65000000000E+04  0.15050000000E+03 0. -1.
</event>
<event>
 4    1  0.5640637E-004  0.6500000E+04  0.7818608E-02  0.7223770E-01
         52   -1    0    0    0    0  0.00000000000E+00  0.00000000000E+00  0.64930732323E+04  0.65000000000E+04  0.30000000000E+03 0. -1.
        -52   -1    0    0    0    0 -0.00000000000E+00 -0.00000000000E+00 -0.64930732323E+04  0.65000000000E+04  0.30000000000E+03 0.  1.
     100001    1    1    2    0    0 -0.98276982400E+03  0.11779308488E+04  0.63145856664E+04  0.65000000000E+04  0.15050000000E+03 0. -1.
     100001    1    1    2    0    0  0.98276982400E+03 -0.11779308488E+04 -0.63145856664E+04  0.65000000000E+04  0.15050000000E+03 0.  1.
</event>
<event>
 4    1  0.5640637E-004  0.6500000E+04  0.7818608E-02  0.7223770E-01
         52   -1    0    0    0    0  0.00000000000E+00  0.00000000000E+00  0.64930732323E+04  0.65000000000E+04  0.30000000000E+03 0.  1.
        -52   -1    0    0    0    0 -0.00000000000E+00 -0.00000000000E+00 -0.64930732323E+04  0.65000000000E+04  0.30000000000E+03 0. -1.
     100001    1    1    2    0    0 -0.57961039683E+02 -0.87192347021E+03 -0.64392344056E+04  0.65000000000E+04  0.15050000000E+03 0. -1.
     100001    1    1    2    0    0  0.57961039683E+02  0.87192347021E+03  0.64392344056E+04  0.65000000000E+04  0.15050000000E+03 0.  1.
</event>
<event>
 4    1  0.5640637E-004  0.6500000E+04  0.7818608E-02  0.7223770E-01
         52   -1    0    0    0    0  0.00000000000E+00  0.00000000000E+00  0.64930732323E+04  0.65000000000E+04  0.30000000000E+03 0. -1.
        -52   -1    0    0    0    0 -0.00000000000E+00 -0.00000000000E+00 -0.64930732323E+04  0.65000000000E+04  0.30000000000E+03 0.  1.
     100001    1    1    2    0    0 -0.48444196674E+03  0.31538268353E+03 -0.64724956156E+04  0.65000000000E+04  0.15050000000E+03 0.  1.
     100001    1    1    2    0    0  0.48444196674E+03 -0.31538268353E+03  0.64724956156E+04  0.65000000000E+04  0.15050000000E+03 0. -1.
</event>
<event>
 4    1  0.5640637E-004  0.6500000E+04  0.7818608E-02  0.7223770E-01
         52   -1    0    0    0    0  0.00000000000E+00  0.00000000000E+00  0.64930732323E+04  0.65000000000E+04  0.30000000000E+03 0. -1.
        -52   -1    0    0    0    0 -0.00000000000E+00 -0.00000000000E+00 -0.64930732323E+04  0.65000000000E+04  0.30000000000E+03 0.  1.
     100001    1    1    2    0    0 -0.23291060114E+03 -0.35406276128E+03 -0.64844230247E+04  0.65000000000E+04  0.15050000000E+03 0.  1.
     100001    1    1    2    0    0  0.23291060114E+03  0.35406276128E+03  0.64844230247E+04  0.65000000000E+04  0.15050000000E+03 0. -1.
</event>
<event>
 4    1  0.5640637E-004  0.6500000E+04  0.7818608E-02  0.7223770E-01
         52   -1    0    0    0    0  0.00000000000E+00  0.00000000000E+00  0.64930732323E+04  0.65000000000E+04  0.30000000000E+03 0.  1.
        -52   -1    0    0    0    0 -0.00000000000E+00 -0.00000000000E+00 -0.64930732323E+04  0.65000000000E+04  0.30000000000E+03 0. -1.
     100001    1    1    2    0    0  0.76496341312E+03  0.23177003667E+03 -0.64489117979E+04  0.65000000000E+04  0.15050000000E+03 0. -1.
     100001    1    1    2    0    0 -0.76496341312E+03 -0.23177003667E+03  0.64489117979E+04  0.65000000000E+04  0.15050000000E+03 0.  1.
</event>
<event>
 4    1  0.5640637E-004  0.6500000E+04  0.7818608E-02  0.7223770E-01
         52   -1    0    0    0    0  0.00000000000E+00  0.00000000000E+00  0.64930732323E+04  0.65000000000E+04  0.30000000000E+03 0. -1.
        -52   -1    0    0    0    0 -0.00000000000E+00 -0.00000000000E+00 -0.64930732323E+04  0.65000000000E+04  0.30000000000E+03 0.  1.
     100001    1    1    2    0    0 -0.47157562242E+04 -0.44318227957E+04 -0.58986412916E+03  0.65000000000E+04  0.15050000000E+03 0.  1.
     100001    1    1    2    0    0  0.47157562242E+04  0.44318227957E+04  0.58986412916E+03  0.65000000000E+04  0.15050000000E+03 0. -1.
</event>
<event>
 4    1  0.5640637E-004  0.6500000E+04  0.7818608E-02  0.7223770E-01
         52   -1    0    0    0    0  0.00000000000E+00  0.00000000000E+00  0.64930732323E+04  0.65000000000E+04  0.30000000000E+03 0. -1.
        -52   -1    0    0    0    0 -0.00000000000E+00 -0.00000000000E+00 -0.64930732323E+04  0.65000000000E+04  0.30000000000E+03 0. -1.
     100001    1    1    2    0    0 -0.26742943736E+03 -0.61727565244E+03  0.64633429442E+04  0.65000000000E+04  0.15050000000E+03 0. -1.
     100001    1    1    2    0    0  0.26742943736E+03  0.61727565244E+03 -0.64633429442E+04  0.65000000000E+04  0.15050000000E+03 0. -1.
</event>
<event>
 4    1  0.5640637E-004  0.6500000E+04  0.7818608E-02  0.7223770E-01
         52   -1    0    0    0    0  0.00000000000E+00  0.00000000000E+00  0.64930732323E+04  0.65000000000E+04  0.30000000000E+03 0. -1.
        -52   -1    0    0    0    0 -0.00000000000E+00 -0.00000000000E+00 -0.64930732323E+04  0.65000000000E+04  0.30000000000E+03 0.  1.
     100001    1    1    2    0    0  0.41745680909E+03 -0.37685866249E+03 -0.64738749688E+04  0.65000000000E+04  0.15050000000E+03 0.  1.
     100001    1    1    2    0    0 -0.41745680909E+03  0.37685866249E+03  0.64738749688E+04  0.65000000000E+04  0.15050000000E+03 0. -1.
</event>
<event>
 4    1  0.5640637E-004  0.6500000E+04  0.7818608E-02  0.7223770E-01
         52   -1    0    0    0    0  0.00000000000E+00  0.00000000000E+00  0.64930732323E+04  0.65000000000E+04  0.30000000000E+03 0.  1.
        -52   -1    0    0    0    0 -0.00000000000E+00 -0.00000000000E+00 -0.64930732323E+04  0.65000000000E+04  0.30000000000E+03 0. -1.
     100001    1    1    2    0    0 -0.10606966191E+04 -0.22972689120E+03 -0.64069882150E+04  0.65000000000E+04  0.15050000000E+03 0. -1.
     100001    1    1    2    0    0  0.10606966191E+04  0.22972689120E+03  0.64069882150E+04  0.65000000000E+04  0.15050000000E+03 0.  1.
</event>
<event>
 4    1  0.5640637E-004  0.6500000E+04  0.7818608E-02  0.7223770E-01
         52   -1    0    0    0    0  0.00000000000E+00  0.00000000000E+00  0.64930732323E+04  0.65000000000E+04  0.30000000000E+03 0.  1.
        -52   -1    0    0    0    0 -0.00000000000E+00 -0.00000000000E+00 -0.64930732323E+04  0.65000000000E+04  0.30000000000E+03 0. -1.
     100001    1    1    2    0    0 -0.14378987341E+04  0.91807749655E+03  0.62703214185E+04  0.65000000000E+04  0.15050000000E+03 0.  1.
     100001    1    1    2    0    0  0.14378987341E+04 -0.91807749655E+03 -0.62703214185E+04  0.65000000000E+04  0.15050000000E+03 0. -1.
</event>
<event>
 4    1  0.5640637E-004  0.6500000E+04  0.7818608E-02  0.7223770E-01
         52   -1    0    0    0    0  0.00000000000E+00  0.00000000000E+00  0.64930732323E+04  0.65000000000E+04  0.30000000000E+03 0.  1.
        -52   -1    0    0    0    0 -0.00000000000E+00 -0.00000000000E+00 -0.64930732323E+04  0.65000000000E+04  0.30000000000E+03 0. -1.
     100001    1    1    2    0    0  0.55902498126E+03 -0.43814171503E+04 -0.47663428932E+04  0.65000000000E+04  0.15050000000E+03 0. -1.
     100001    1    1    2    0    0 -0.55902498126E+03  0.43814171503E+04  0.47663428932E+04  0.65000000000E+04  0.15050000000E+03 0.  1.
</event>
<event>
 4    1  0.5640637E-004  0.6500000E+04  0.7818608E-02  0.7223770E-01
         52   -1    0    0    0    0  0.00000000000E+00  0.00000000000E+00  0.64930732323E+04  0.65000000000E+04  0.30000000000E+03 0.  1.
        -52   -1    0    0    0    0 -0.00000000000E+00 -0.00000000000E+00 -0.64930732323E+04  0.65000000000E+04  0.30000000000E+03 0. -1.
     100001    1    1    2    0    0  0.47550447280E+04 -0.38847926944E+04 -0.21272717519E+04  0.65000000000E+04  0.15050000000E+03 0. -1.
     100001    1    1    2    0    0 -0.47550447280E+04  0.38847926944E+04  0.21272717519E+04  0.65000000000E+04  0.15050000000E+03 0.  1.
</event>
<event>
 4    1  0.5640637E-004  0.6500000E+04  0.7818608E-02  0.7223770E-01
         52   -1    0    0    0    0  0.00000000000E+00  0.00000000000E+00  0.64930732323E+04  0.65000000000E+04  0.30000000000E+03 0. -1.
        -52   -1    0    0    0    0 -0.00000000000E+00 -0.00000000000E+00 -0.64930732323E+04  0.65000000000E+04  0.30000000000E+03 0.  1.
     100001    1    1    2    0    0  0.14266873153E+04  0.26694856812E+04 -0.57502834063E+04  0.65000000000E+04  0.15050000000E+03 0.  1.
     100001    1    1    2    0    0 -0.14266873153E+04 -0.26694856812E+04  0.57502834063E+04  0.65000000000E+04  0.15050000000E+03 0. -1.
</event>
<event>
 4    1  0.5640637E-004  0.6500000E+04  0.7818608E-02  0.7223770E-01
         52   -1    0    0    0    0  0.00000000000E+00  0.00000000000E+00  0.64930732323E+04  0.65000000000E+04  0.30000000000E+03 0.  1.
        -52   -1    0    0    0    0 -0.00000000000E+00 -0.00000000000E+00 -0.64930732323E+04  0.65000000000E+04  0.30000000000E+03 0. -1.
     100001    1    1    2    0    0  0.11861062893E+04  0.82847377246E+03  0.63351505766E+04  0.65000000000E+04  0.15050000000E+03 0.  1.
     100001    1    1    2    0    0 -0.11861062893E+04 -0.82847377246E+03 -0.63351505766E+04  0.65000000000E+04  0.15050000000E+03 0. -1.
</event>
<event>
 4    1  0.5640637E-004  0.6500000E+04  0.7818608E-02  0.7223770E-01
         52   -1    0    0    0    0  0.00000000000E+00  0.00000000000E+00  0.64930732323E+04  0.65000000000E+04  0.30000000000E+03 0.  1.
        -52   -1    0    0    0    0 -0.00000000000E+00 -0.00000000000E+00 -0.64930732323E+04  0.65000000000E+04  0.30000000000E+03 0. -1.
     100001    1    1    2    0    0  0.27220814101E+03 -0.10072464735E+04  0.64139462907E+04  0.65000000000E+04  0.15050000000E+03 0.  1.
     100001    1    1    2    0    0 -0.27220814101E+03  0.10072464735E+04 -0.64139462907E+04  0.65000000000E+04  0.15050000000E+03 0. -1.
</event>
<event>
 4    1  0.5640637E-004  0.6500000E+04  0.7818608E-02  0.7223770E-01
         52   -1    0    0    0    0  0.00000000000E+00  0.00000000000E+00  0.64930732323E+04  0.65000000000E+04  0.30000000000E+03 0.  1.
        -52   -1    0    0    0    0 -0.00000000000E+00 -0.00000000000E+00 -0.64930732323E+04  0.65000000000E+04  0.30000000000E+03 0. -1.
     100001    1    1    2    0    0 -0.17663882619E+03 -0.70384620462E+03 -0.64576117099E+04  0.65000000000E+04  0.15050000000E+03 0. -1.
     100001    1    1    2    0    0  0.17663882619E+03  0.70384620462E+03  0.64576117099E+04  0.65000000000E+04  0.15050000000E+03 0.  1.
</event>
<event>
 4    1  0.5640637E-004  0.6500000E+04  0.7818608E-02  0.7223770E-01
         52   -1    0    0    0    0  0.00000000000E+00  0.00000000000E+00  0.64930732323E+04  0.65000000000E+04  0.30000000000E+03 0. -1.
        -52   -1    0    0    0    0 -0.00000000000E+00 -0.00000000000E+00 -0.64930732323E+04  0.65000000000E+04  0.30000000000E+03 0.  1.
     100001    1    1    2    0    0  0.15521450842E+04  0.11907538514E+03  0.63090424345E+04  0.65000000000E+04  0.15050000000E+03 0. -1.
     100001    1    1    2    0    0 -0.15521450842E+04 -0.11907538514E+03 -0.63090424345E+04  0.65000000000E+04  0.15050000000E+03 0.  1.
</event>
<event>
 4    1  0.5640637E-004  0.6500000E+04  0.7818608E-02  0.7223770E-01
         52   -1    0    0    0    0  0.00000000000E+00  0.00000000000E+00  0.64930732323E+04  0.65000000000E+04  0.30000000000E+03 0.  1.
        -52   -1    0    0    0    0 -0.00000000000E+00 -0.00000000000E+00 -0.64930732323E+04  0.65000000000E+04  0.30000000000E+03 0. -1.
     100001    1    1    2    0    0  0.90258281447E+02  0.77377086105E+03  0.64513937911E+04  0.65000000000E+04  0.15050000000E+03 0.  1.
     100001    1    1    2    0    0 -0.90258281447E+02 -0.77377086105E+03 -0.64513937911E+04  0.65000000000E+04  0.15050000000E+03 0. -1.
</event>
<event>
 4    1  0.5640637E-004  0.6500000E+04  0.7818608E-02  0.7223770E-01
         52   -1    0    0    0    0  0.00000000000E+00  0.00000000000E+00  0.64930732323E+04  0.65000000000E+04  0.30000000000E+03 0. -1.
        -52   -1    0    0    0    0 -0.00000000000E+00 -0.00000000000E+00 -0.64930732323E+04  0.65000000000E+04  0.30000000000E+03 0.  1.
     100001    1    1    2    0    0 -0.37576053908E+03  0.24496981115E+03 -0.64827574040E+04  0.65000000000E+04  0.15050000000E+03 0.  1.
     100001    1    1    2    0    0  0.37576053908E+03 -0.24496981115E+03  0.64827574040E+04  0.65000000000E+04  0.15050000000E+03 0. -1.
</event>
<event>
 4    1  0.5640637E-004  0.6500000E+04  0.7818608E-02  0.7223770E-01
         52   -1    0    0    0    0  0.00000000000E+00  0.00000000000E+00  0.64930732323E+04  0.65000000000E+04  0.30000000000E+03 0.  1.
        -52   -1    0    0    0    0 -0.00000000000E+00 -0.00000000000E+00 -0.64930732323E+04  0.65000000000E+04  0.30000000000E+03 0. -1.
     100001    1    1    2    0    0  0.14614639215E+04  0.21356028914E+03  0.63281802249E+04  0.65000000000E+04  0.15050000000E+03 0.  1.
     100001    1    1    2    0    0 -0.14614639215E+04 -0.21356028914E+03 -0.63281802249E+04  0.65000000000E+04  0.15050000000E+03 0. -1.
</event>
<event>
 4    1  0.5640637E-004  0.6500000E+04  0.7818608E-02  0.7223770E-01
         52   -1    0    0    0    0  0.00000000000E+00  0.00000000000E+00  0.64930732323E+04  0.65000000000E+04  0.30000000000E+03 0.  1.
        -52   -1    0    0    0    0 -0.00000000000E+00 -0.00000000000E+00 -0.64930732323E+04  0.65000000000E+04  0.30000000000E+03 0. -1.
     100001    1    1    2    0    0 -0.28786107241E+04  0.15718866571E+04 -0.56098237393E+04  0.65000000000E+04  0.15050000000E+03 0. -1.
     100001    1    1    2    0    0  0.28786107241E+04 -0.15718866571E+04  0.56098237393E+04  0.65000000000E+04  0.15050000000E+03 0.  1.
</event>
<event>
 4    1  0.5640637E-004  0.6500000E+04  0.7818608E-02  0.7223770E-01
         52   -1    0    0    0    0  0.00000000000E+00  0.00000000000E+00  0.64930732323E+04  0.65000000000E+04  0.30000000000E+03 0. -1.
        -52   -1    0    0    0    0 -0.00000000000E+00 -0.00000000000E+00 -0.64930732323E+04  0.65000000000E+04  0.30000000000E+03 0.  1.
     100001    1    1    2    0    0 -0.23946584244E+04 -0.33920494826E+04 -0.49986959387E+04  0.65000000000E+04  0.15050000000E+03 0.  1.
     100001    1    1    2    0    0  0.23946584244E+04  0.33920494826E+04  0.49986959387E+04  0.65000000000E+04  0.15050000000E+03 0. -1.
</event>
<event>
 4    1  0.5640637E-004  0.6500000E+04  0.7818608E-02  0.7223770E-01
         52   -1    0    0    0    0  0.00000000000E+00  0.00000000000E+00  0.64930732323E+04  0.65000000000E+04  0.30000000000E+03 0. -1.
        -52   -1    0    0    0    0 -0.00000000000E+00 -0.00000000000E+00 -0.64930732323E+04  0.65000000000E+04  0.30000000000E+03 0.  1.
     100001    1    1    2    0    0  0.86717235971E+03 -0.33332905983E+03 -0.64315047684E+04  0.65000000000E+04  0.15050000000E+03 0.  1.
     100001    1    1    2    0    0 -0.86717235971E+03  0.33332905983E+03  0.64315047684E+04  0.65000000000E+04  0.15050000000E+03 0. -1.
</event>
<event>
 4    1  0.9002408E-004  0.6500000E+04  0.7818608E-02  0.7223770E-01
         52   -1    0    0    0    0  0.00000000000E+00  0.00000000000E+00  0.64930732323E+04  0.65000000000E+04  0.30000000000E+03 0. -1.
        -52   -1    0    0    0    0 -0.00000000000E+00 -0.00000000000E+00 -0.64930732323E+04  0.65000000000E+04  0.30000000000E+03 0. -1.
     100001    1    1    2    0    0 -0.72159528698E+02  0.77182116800E+02 -0.64973983773E+04  0.65000000000E+04  0.15050000000E+03 0. -1.
     100001    1    1    2    0    0  0.72159528698E+02 -0.77182116800E+02  0.64973983773E+04  0.65000000000E+04  0.15050000000E+03 0. -1.
</event>
<event>
 4    1  0.5640637E-004  0.6500000E+04  0.7818608E-02  0.7223770E-01
         52   -1    0    0    0    0  0.00000000000E+00  0.00000000000E+00  0.64930732323E+04  0.65000000000E+04  0.30000000000E+03 0. -1.
        -52   -1    0    0    0    0 -0.00000000000E+00 -0.00000000000E+00 -0.64930732323E+04  0.65000000000E+04  0.30000000000E+03 0.  1.
     100001    1    1    2    0    0  0.11515108322E+04 -0.16604036668E+04  0.61761178921E+04  0.65000000000E+04  0.15050000000E+03 0. -1.
     100001    1    1    2    0    0 -0.11515108322E+04  0.16604036668E+04 -0.61761178921E+04  0.65000000000E+04  0.15050000000E+03 0.  1.
</event>
<event>
 4    1  0.5640637E-004  0.6500000E+04  0.7818608E-02  0.7223770E-01
         52   -1    0    0    0    0  0.00000000000E+00  0.00000000000E+00  0.64930732323E+04  0.65000000000E+04  0.30000000000E+03 0.  1.
        -52   -1    0    0    0    0 -0.00000000000E+00 -0.00000000000E+00 -0.64930732323E+04  0.65000000000E+04  0.30000000000E+03 0. -1.
     100001    1    1    2    0    0 -0.58268936056E+04 -0.22230910159E+04 -0.18255210199E+04  0.65000000000E+04  0.15050000000E+03 0. -1.
     100001    1    1    2    0    0  0.58268936056E+04  0.22230910159E+04  0.18255210199E+04  0.65000000000E+04  0.15050000000E+03 0.  1.
</event>
<event>
 4    1  0.5640637E-004  0.6500000E+04  0.7818608E-02  0.7223770E-01
         52   -1    0    0    0    0  0.00000000000E+00  0.00000000000E+00  0.64930732323E+04  0.65000000000E+04  0.30000000000E+03 0.  1.
        -52   -1    0    0    0    0 -0.00000000000E+00 -0.00000000000E+00 -0.64930732323E+04  0.65000000000E+04  0.30000000000E+03 0. -1.
     100001    1    1    2    0    0 -0.26431939834E+04  0.26592740593E+03  0.59304433165E+04  0.65000000000E+04  0.15050000000E+03 0.  1.
     100001    1    1    2    0    0  0.26431939834E+04 -0.26592740593E+03 -0.59304433165E+04  0.65000000000E+04  0.15050000000E+03 0. -1.
</event>
<event>
 4    1  0.5640637E-004  0.6500000E+04  0.7818608E-02  0.7223770E-01
         52   -1    0    0    0    0  0.00000000000E+00  0.00000000000E+00  0.64930732323E+04  0.65000000000E+04  0.30000000000E+03 0. -1.
        -52   -1    0    0    0    0 -0.00000000000E+00 -0.00000000000E+00 -0.64930732323E+04  0.65000000000E+04  0.30000000000E+03 0.  1.
     100001    1    1    2    0    0 -0.13601177789E+04  0.52250602526E+03  0.63328048155E+04  0.65000000000E+04  0.15050000000E+03 0. -1.
     100001    1    1    2    0    0  0.13601177789E+04 -0.52250602526E+03 -0.63328048155E+04  0.65000000000E+04  0.15050000000E+03 0.  1.
</event>
<event>
 4    1  0.5640637E-004  0.6500000E+04  0.7818608E-02  0.7223770E-01
         52   -1    0    0    0    0  0.00000000000E+00  0.00000000000E+00  0.64930732323E+04  0.65000000000E+04  0.30000000000E+03 0. -1.
        -52   -1    0    0    0    0 -0.00000000000E+00 -0.00000000000E+00 -0.64930732323E+04  0.65000000000E+04  0.30000000000E+03 0.  1.
     100001    1    1    2    0    0  0.69302078451E+03 -0.10466997322E+04 -0.63758522264E+04  0.65000000000E+04  0.15050000000E+03 0.  1.
     100001    1    1    2    0    0 -0.69302078451E+03  0.10466997322E+04  0.63758522264E+04  0.65000000000E+04  0.15050000000E+03 0. -1.
</event>
<event>
 4    1  0.5640637E-004  0.6500000E+04  0.7818608E-02  0.7223770E-01
         52   -1    0    0    0    0  0.00000000000E+00  0.00000000000E+00  0.64930732323E+04  0.65000000000E+04  0.30000000000E+03 0.  1.
        -52   -1    0    0    0    0 -0.00000000000E+00 -0.00000000000E+00 -0.64930732323E+04  0.65000000000E+04  0.30000000000E+03 0. -1.
     100001    1    1    2    0    0  0.25985289025E+03 -0.15798040964E+03  0.64911376827E+04  0.65000000000E+04  0.15050000000E+03 0.  1.
     100001    1    1    2    0    0 -0.25985289025E+03  0.15798040964E+03 -0.64911376827E+04  0.65000000000E+04  0.15050000000E+03 0. -1.
</event>
<event>
 4    1  0.5640637E-004  0.6500000E+04  0.7818608E-02  0.7223770E-01
         52   -1    0    0    0    0  0.00000000000E+00  0.00000000000E+00  0.64930732323E+04  0.65000000000E+04  0.30000000000E+03 0.  1.
        -52   -1    0    0    0    0 -0.00000000000E+00 -0.00000000000E+00 -0.64930732323E+04  0.65000000000E+04  0.30000000000E+03 0. -1.
     100001    1    1    2    0    0 -0.16230582533E+03  0.10260403938E+04 -0.64146899909E+04  0.65000000000E+04  0.15050000000E+03 0. -1.
     100001    1    1    2    0    0  0.16230582533E+03 -0.10260403938E+04  0.64146899909E+04  0.65000000000E+04  0.15050000000E+03 0.  1.
</event>
<event>
 4    1  0.5640637E-004  0.6500000E+04  0.7818608E-02  0.7223770E-01
         52   -1    0    0    0    0  0.00000000000E+00  0.00000000000E+00  0.64930732323E+04  0.65000000000E+04  0.30000000000E+03 0. -1.
        -52   -1    0    0    0    0 -0.00000000000E+00 -0.00000000000E+00 -0.64930732323E+04  0.65000000000E+04  0.30000000000E+03 0.  1.
     100001    1    1    2    0    0  0.11279642895E+04  0.34000331983E+03 -0.63905746263E+04  0.65000000000E+04  0.15050000000E+03 0.  1.
     100001    1    1    2    0    0 -0.11279642895E+04 -0.34000331983E+03  0.63905746263E+04  0.65000000000E+04  0.15050000000E+03 0. -1.
</event>
<event>
 4    1  0.5640637E-004  0.6500000E+04  0.7818608E-02  0.7223770E-01
         52   -1    0    0    0    0  0.00000000000E+00  0.00000000000E+00  0.64930732323E+04  0.65000000000E+04  0.30000000000E+03 0.  1.
        -52   -1    0    0    0    0 -0.00000000000E+00 -0.00000000000E+00 -0.64930732323E+04  0.65000000000E+04  0.30000000000E+03 0. -1.
     100001    1    1    2    0    0 -0.10025321488E+04  0.13558625740E+04 -0.62756605805E+04  0.65000000000E+04  0.15050000000E+03 0. -1.
     100001    1    1    2    0    0  0.10025321488E+04 -0.13558625740E+04  0.62756605805E+04  0.65000000000E+04  0.15050000000E+03 0.  1.
</event>
<event>
 4    1  0.5640637E-004  0.6500000E+04  0.7818608E-02  0.7223770E-01
         52   -1    0    0    0    0  0.00000000000E+00  0.00000000000E+00  0.64930732323E+04  0.65000000000E+04  0.30000000000E+03 0.  1.
        -52   -1    0    0    0    0 -0.00000000000E+00 -0.00000000000E+00 -0.64930732323E+04  0.65000000000E+04  0.30000000000E+03 0. -1.
     100001    1    1    2    0    0  0.23854926253E+04  0.20670563780E+04  0.56801454748E+04  0.65000000000E+04  0.15050000000E+03 0.  1.
     100001    1    1    2    0    0 -0.23854926253E+04 -0.20670563780E+04 -0.56801454748E+04  0.65000000000E+04  0.15050000000E+03 0. -1.
</event>
<event>
 4    1  0.5640637E-004  0.6500000E+04  0.7818608E-02  0.7223770E-01
         52   -1    0    0    0    0  0.00000000000E+00  0.00000000000E+00  0.64930732323E+04  0.65000000000E+04  0.30000000000E+03 0.  1.
        -52   -1    0    0    0    0 -0.00000000000E+00 -0.00000000000E+00 -0.64930732323E+04  0.65000000000E+04  0.30000000000E+03 0. -1.
     100001    1    1    2    0    0 -0.84988288367E+03 -0.23583206610E+04  0.59952791840E+04  0.65000000000E+04  0.15050000000E+03 0.  1.
     100001    1    1    2    0    0  0.84988288367E+03  0.23583206610E+04 -0.59952791840E+04  0.65000000000E+04  0.15050000000E+03 0. -1.
</event>
<event>
 4    1  0.5640637E-004  0.6500000E+04  0.7818608E-02  0.7223770E-01
         52   -1    0    0    0    0  0.00000000000E+00  0.00000000000E+00  0.64930732323E+04  0.65000000000E+04  0.30000000000E+03 0. -1.
        -52   -1    0    0    0    0 -0.00000000000E+00 -0.00000000000E+00 -0.64930732323E+04  0.65000000000E+04  0.30000000000E+03 0.  1.
     100001    1    1    2    0    0 -0.13856795143E+03  0.77588403090E+03  0.64502831444E+04  0.65000000000E+04  0.15050000000E+03 0. -1.
     100001    1    1    2    0    0  0.13856795143E+03 -0.77588403090E+03 -0.64502831444E+04  0.65000000000E+04  0.15050000000E+03 0.  1.
</event>
<event>
 4    1  0.5640637E-004  0.6500000E+04  0.7818608E-02  0.7223770E-01
         52   -1    0    0    0    0  0.00000000000E+00  0.00000000000E+00  0.64930732323E+04  0.65000000000E+04  0.30000000000E+03 0. -1.
        -52   -1    0    0    0    0 -0.00000000000E+00 -0.00000000000E+00 -0.64930732323E+04  0.65000000000E+04  0.30000000000E+03 0.  1.
     100001    1    1    2    0    0  0.90698693045E+03 -0.45453173632E+02  0.64344897596E+04  0.65000000000E+04  0.15050000000E+03 0. -1.
     100001    1    1    2    0    0 -0.90698693045E+03  0.45453173632E+02 -0.64344897596E+04  0.65000000000E+04  0.15050000000E+03 0.  1.
</event>
<event>
 4    1  0.5640637E-004  0.6500000E+04  0.7818608E-02  0.7223770E-01
         52   -1    0    0    0    0  0.00000000000E+00  0.00000000000E+00  0.64930732323E+04  0.65000000000E+04  0.30000000000E+03 0.  1.
        -52   -1    0    0    0    0 -0.00000000000E+00 -0.00000000000E+00 -0.64930732323E+04  0.65000000000E+04  0.30000000000E+03 0. -1.
     100001    1    1    2    0    0  0.13890931457E+04 -0.11099028343E+03 -0.63470820965E+04  0.65000000000E+04  0.15050000000E+03 0. -1.
     100001    1    1    2    0    0 -0.13890931457E+04  0.11099028343E+03  0.63470820965E+04  0.65000000000E+04  0.15050000000E+03 0.  1.
</event>
<event>
 4    1  0.5640637E-004  0.6500000E+04  0.7818608E-02  0.7223770E-01
         52   -1    0    0    0    0  0.00000000000E+00  0.00000000000E+00  0.64930732323E+04  0.65000000000E+04  0.30000000000E+03 0. -1.
        -52   -1    0    0    0    0 -0.00000000000E+00 -0.00000000000E+00 -0.64930732323E+04  0.65000000000E+04  0.30000000000E+03 0.  1.
     100001    1    1    2    0    0  0.52845345415E+04 -0.30457108370E+04 -0.22415820143E+04  0.65000000000E+04  0.15050000000E+03 0.  1.
     100001    1    1    2    0    0 -0.52845345415E+04  0.30457108370E+04  0.22415820143E+04  0.65000000000E+04  0.15050000000E+03 0. -1.
</event>
<event>
 4    1  0.5640637E-004  0.6500000E+04  0.7818608E-02  0.7223770E-01
         52   -1    0    0    0    0  0.00000000000E+00  0.00000000000E+00  0.64930732323E+04  0.65000000000E+04  0.30000000000E+03 0.  1.
        -52   -1    0    0    0    0 -0.00000000000E+00 -0.00000000000E+00 -0.64930732323E+04  0.65000000000E+04  0.30000000000E+03 0.  1.
     100001    1    1    2    0    0  0.19992574558E+02 -0.15513554440E+03 -0.64963746051E+04  0.65000000000E+04  0.15050000000E+03 0.  1.
     100001    1    1    2    0    0 -0.19992574558E+02  0.15513554440E+03  0.64963746051E+04  0.65000000000E+04  0.15050000000E+03 0.  1.
</event>
<event>
 4    1  0.5640637E-004  0.6500000E+04  0.7818608E-02  0.7223770E-01
         52   -1    0    0    0    0  0.00000000000E+00  0.00000000000E+00  0.64930732323E+04  0.65000000000E+04  0.30000000000E+03 0.  1.
        -52   -1    0    0    0    0 -0.00000000000E+00 -0.00000000000E+00 -0.64930732323E+04  0.65000000000E+04  0.30000000000E+03 0. -1.
     100001    1    1    2    0    0  0.36203539743E+03  0.43188325233E+04  0.48418969172E+04  0.65000000000E+04  0.15050000000E+03 0.  1.
     100001    1    1    2    0    0 -0.36203539743E+03 -0.43188325233E+04 -0.48418969172E+04  0.65000000000E+04  0.15050000000E+03 0. -1.
</event>
<event>
 4    1  0.5640637E-004  0.6500000E+04  0.7818608E-02  0.7223770E-01
         52   -1    0    0    0    0  0.00000000000E+00  0.00000000000E+00  0.64930732323E+04  0.65000000000E+04  0.30000000000E+03 0.  1.
        -52   -1    0    0    0    0 -0.00000000000E+00 -0.00000000000E+00 -0.64930732323E+04  0.65000000000E+04  0.30000000000E+03 0. -1.
     100001    1    1    2    0    0  0.41975072537E+01 -0.10870726234E+04  0.64066844188E+04  0.65000000000E+04  0.15050000000E+03 0.  1.
     100001    1    1    2    0    0 -0.41975072537E+01  0.10870726234E+04 -0.64066844188E+04  0.65000000000E+04  0.15050000000E+03 0. -1.
</event>
<event>
 4    1  0.5640637E-004  0.6500000E+04  0.7818608E-02  0.7223770E-01
         52   -1    0    0    0    0  0.00000000000E+00  0.00000000000E+00  0.64930732323E+04  0.65000000000E+04  0.30000000000E+03 0. -1.
        -52   -1    0    0    0    0 -0.00000000000E+00 -0.00000000000E+00 -0.64930732323E+04  0.65000000000E+04  0.30000000000E+03 0.  1.
     100001    1    1    2    0    0  0.70362757472E+02 -0.39491227558E+03  0.64858648712E+04  0.65000000000E+04  0.15050000000E+03 0. -1.
     100001    1    1    2    0    0 -0.70362757472E+02  0.39491227558E+03 -0.64858648712E+04  0.65000000000E+04  0.15050000000E+03 0.  1.
</event>
<event>
 4    1  0.5640637E-004  0.6500000E+04  0.7818608E-02  0.7223770E-01
         52   -1    0    0    0    0  0.00000000000E+00  0.00000000000E+00  0.64930732323E+04  0.65000000000E+04  0.30000000000E+03 0.  1.
        -52   -1    0    0    0    0 -0.00000000000E+00 -0.00000000000E+00 -0.64930732323E+04  0.65000000000E+04  0.30000000000E+03 0. -1.
     100001    1    1    2    0    0 -0.13525652752E+04 -0.36913077624E+03  0.63452075929E+04  0.65000000000E+04  0.15050000000E+03 0.  1.
     100001    1    1    2    0    0  0.13525652752E+04  0.36913077624E+03 -0.63452075929E+04  0.65000000000E+04  0.15050000000E+03 0. -1.
</event>
<event>
 4    1  0.5640637E-004  0.6500000E+04  0.7818608E-02  0.7223770E-01
         52   -1    0    0    0    0  0.00000000000E+00  0.00000000000E+00  0.64930732323E+04  0.65000000000E+04  0.30000000000E+03 0. -1.
        -52   -1    0    0    0    0 -0.00000000000E+00 -0.00000000000E+00 -0.64930732323E+04  0.65000000000E+04  0.30000000000E+03 0.  1.
     100001    1    1    2    0    0  0.54868799635E+03 -0.19154044414E+04  0.61852661267E+04  0.65000000000E+04  0.15050000000E+03 0. -1.
     100001    1    1    2    0    0 -0.54868799635E+03  0.19154044414E+04 -0.61852661267E+04  0.65000000000E+04  0.15050000000E+03 0.  1.
</event>
<event>
 4    1  0.5640637E-004  0.6500000E+04  0.7818608E-02  0.7223770E-01
         52   -1    0    0    0    0  0.00000000000E+00  0.00000000000E+00  0.64930732323E+04  0.65000000000E+04  0.30000000000E+03 0.  1.
        -52   -1    0    0    0    0 -0.00000000000E+00 -0.00000000000E+00 -0.64930732323E+04  0.65000000000E+04  0.30000000000E+03 0. -1.
     100001    1    1    2    0    0  0.57743309937E+04  0.35055133283E+03  0.29599941027E+04  0.65000000000E+04  0.15050000000E+03 0. -1.
     100001    1    1    2    0    0 -0.57743309937E+04 -0.35055133283E+03 -0.29599941027E+04  0.65000000000E+04  0.15050000000E+03 0.  1.
</event>
<event>
 4    1  0.5640637E-004  0.6500000E+04  0.7818608E-02  0.7223770E-01
         52   -1    0    0    0    0  0.00000000000E+00  0.00000000000E+00  0.64930732323E+04  0.65000000000E+04  0.30000000000E+03 0.  1.
        -52   -1    0    0    0    0 -0.00000000000E+00 -0.00000000000E+00 -0.64930732323E+04  0.65000000000E+04  0.30000000000E+03 0. -1.
     100001    1    1    2    0    0 -0.30425956091E+04 -0.26432582433E+03 -0.57358603163E+04  0.65000000000E+04  0.15050000000E+03 0. -1.
     100001    1    1    2    0    0  0.30425956091E+04  0.26432582433E+03  0.57358603163E+04  0.65000000000E+04  0.15050000000E+03 0.  1.
</event>
<event>
 4    1  0.5640637E-004  0.6500000E+04  0.7818608E-02  0.7223770E-01
         52   -1    0    0    0    0  0.00000000000E+00  0.00000000000E+00  0.64930732323E+04  0.65000000000E+04  0.30000000000E+03 0.  1.
        -52   -1    0    0    0    0 -0.00000000000E+00 -0.00000000000E+00 -0.64930732323E+04  0.65000000000E+04  0.30000000000E+03 0. -1.
     100001    1    1    2    0    0  0.52978309059E+03 -0.32952160331E+02  0.64765418073E+04  0.65000000000E+04  0.15050000000E+03 0.  1.
     100001    1    1    2    0    0 -0.52978309059E+03  0.32952160331E+02 -0.64765418073E+04  0.65000000000E+04  0.15050000000E+03 0. -1.
</event>
<event>
 4    1  0.5640637E-004  0.6500000E+04  0.7818608E-02  0.7223770E-01
         52   -1    0    0    0    0  0.00000000000E+00  0.00000000000E+00  0.64930732323E+04  0.65000000000E+04  0.30000000000E+03 0. -1.
        -52   -1    0    0    0    0 -0.00000000000E+00 -0.00000000000E+00 -0.64930732323E+04  0.65000000000E+04  0.30000000000E+03 0.  1.
     100001    1    1    2    0    0  0.16704772815E+03  0.31051960933E+03  0.64886841793E+04  0.65000000000E+04  0.15050000000E+03 0. -1.
     100001    1    1    2    0    0 -0.16704772815E+03 -0.31051960933E+03 -0.64886841793E+04  0.65000000000E+04  0.15050000000E+03 0.  1.
</event>
<event>
 4    1  0.5640637E-004  0.6500000E+04  0.7818608E-02  0.7223770E-01
         52   -1    0    0    0    0  0.00000000000E+00  0.00000000000E+00  0.64930732323E+04  0.65000000000E+04  0.30000000000E+03 0. -1.
        -52   -1    0    0    0    0 -0.00000000000E+00 -0.00000000000E+00 -0.64930732323E+04  0.65000000000E+04  0.30000000000E+03 0.  1.
     100001    1    1    2    0    0  0.35894273419E+04  0.53961226889E+04  0.47457458143E+03  0.65000000000E+04  0.15050000000E+03 0.  1.
     100001    1    1    2    0    0 -0.35894273419E+04 -0.53961226889E+04 -0.47457458143E+03  0.65000000000E+04  0.15050000000E+03 0. -1.
</event>
<event>
 4    1  0.5640637E-004  0.6500000E+04  0.7818608E-02  0.7223770E-01
         52   -1    0    0    0    0  0.00000000000E+00  0.00000000000E+00  0.64930732323E+04  0.65000000000E+04  0.30000000000E+03 0. -1.
        -52   -1    0    0    0    0 -0.00000000000E+00 -0.00000000000E+00 -0.64930732323E+04  0.65000000000E+04  0.30000000000E+03 0. -1.
     100001    1    1    2    0    0  0.32810373858E+03  0.10958029263E+02 -0.64899597540E+04  0.65000000000E+04  0.15050000000E+03 0. -1.
     100001    1    1    2    0    0 -0.32810373858E+03 -0.10958029263E+02  0.64899597540E+04  0.65000000000E+04  0.15050000000E+03 0. -1.
</event>
<event>
 4    1  0.5640637E-004  0.6500000E+04  0.7818608E-02  0.7223770E-01
         52   -1    0    0    0    0  0.00000000000E+00  0.00000000000E+00  0.64930732323E+04  0.65000000000E+04  0.30000000000E+03 0.  1.
        -52   -1    0    0    0    0 -0.00000000000E+00 -0.00000000000E+00 -0.64930732323E+04  0.65000000000E+04  0.30000000000E+03 0. -1.
     100001    1    1    2    0    0 -0.39934458663E+03 -0.92913233969E+03  0.64190798987E+04  0.65000000000E+04  0.15050000000E+03 0.  1.
     100001    1    1    2    0    0  0.39934458663E+03  0.92913233969E+03 -0.64190798987E+04  0.65000000000E+04  0.15050000000E+03 0. -1.
</event>
<event>
 4    1  0.5640637E-004  0.6500000E+04  0.7818608E-02  0.7223770E-01
         52   -1    0    0    0    0  0.00000000000E+00  0.00000000000E+00  0.64930732323E+04  0.65000000000E+04  0.30000000000E+03 0.  1.
        -52   -1    0    0    0    0 -0.00000000000E+00 -0.00000000000E+00 -0.64930732323E+04  0.65000000000E+04  0.30000000000E+03 0. -1.
     100001    1    1    2    0    0  0.19802981091E+04  0.28264690531E+04  0.55060731780E+04  0.65000000000E+04  0.15050000000E+03 0.  1.
     100001    1    1    2    0    0 -0.19802981091E+04 -0.28264690531E+04 -0.55060731780E+04  0.65000000000E+04  0.15050000000E+03 0. -1.
</event>
<event>
 4    1  0.5640637E-004  0.6500000E+04  0.7818608E-02  0.7223770E-01
         52   -1    0    0    0    0  0.00000000000E+00  0.00000000000E+00  0.64930732323E+04  0.65000000000E+04  0.30000000000E+03 0.  1.
        -52   -1    0    0    0    0 -0.00000000000E+00 -0.00000000000E+00 -0.64930732323E+04  0.65000000000E+04  0.30000000000E+03 0. -1.
     100001    1    1    2    0    0  0.58842216163E+04 -0.21723885088E+03  0.27488348444E+04  0.65000000000E+04  0.15050000000E+03 0.  1.
     100001    1    1    2    0    0 -0.58842216163E+04  0.21723885088E+03 -0.27488348444E+04  0.65000000000E+04  0.15050000000E+03 0. -1.
</event>
<event>
 4    1  0.5640637E-004  0.6500000E+04  0.7818608E-02  0.7223770E-01
         52   -1    0    0    0    0  0.00000000000E+00  0.00000000000E+00  0.64930732323E+04  0.65000000000E+04  0.30000000000E+03 0.  1.
        -52   -1    0    0    0    0 -0.00000000000E+00 -0.00000000000E+00 -0.64930732323E+04  0.65000000000E+04  0.30000000000E+03 0. -1.
     100001    1    1    2    0    0  0.30757778663E+04 -0.56173085430E+04 -0.11012651816E+04  0.65000000000E+04  0.15050000000E+03 0. -1.
     100001    1    1    2    0    0 -0.30757778663E+04  0.56173085430E+04  0.11012651816E+04  0.65000000000E+04  0.15050000000E+03 0.  1.
</event>
<event>
 4    1  0.5640637E-004  0.6500000E+04  0.7818608E-02  0.7223770E-01
         52   -1    0    0    0    0  0.00000000000E+00  0.00000000000E+00  0.64930732323E+04  0.65000000000E+04  0.30000000000E+03 0. -1.
        -52   -1    0    0    0    0 -0.00000000000E+00 -0.00000000000E+00 -0.64930732323E+04  0.65000000000E+04  0.30000000000E+03 0.  1.
     100001    1    1    2    0    0  0.31784160251E+03  0.10010309660E+04  0.64128202431E+04  0.65000000000E+04  0.15050000000E+03 0. -1.
     100001    1    1    2    0    0 -0.31784160251E+03 -0.10010309660E+04 -0.64128202431E+04  0.65000000000E+04  0.15050000000E+03 0.  1.
</event>
<event>
 4    1  0.5640637E-004  0.6500000E+04  0.7818608E-02  0.7223770E-01
         52   -1    0    0    0    0  0.00000000000E+00  0.00000000000E+00  0.64930732323E+04  0.65000000000E+04  0.30000000000E+03 0.  1.
        -52   -1    0    0    0    0 -0.00000000000E+00 -0.00000000000E+00 -0.64930732323E+04  0.65000000000E+04  0.30000000000E+03 0.  1.
     100001    1    1    2    0    0  0.29501265826E+02 -0.45820762058E+02 -0.64980289229E+04  0.65000000000E+04  0.15050000000E+03 0.  1.
     100001    1    1    2    0    0 -0.29501265826E+02  0.45820762058E+02  0.64980289229E+04  0.65000000000E+04  0.15050000000E+03 0.  1.
</event>
<event>
 4    1  0.5640637E-004  0.6500000E+04  0.7818608E-02  0.7223770E-01
         52   -1    0    0    0    0  0.00000000000E+00  0.00000000000E+00  0.64930732323E+04  0.65000000000E+04  0.30000000000E+03 0. -1.
        -52   -1    0    0    0    0 -0.00000000000E+00 -0.00000000000E+00 -0.64930732323E+04  0.65000000000E+04  0.30000000000E+03 0.  1.
     100001    1    1    2    0    0 -0.11508310398E+04  0.63927379452E+04 -0.18931252373E+03  0.65000000000E+04  0.15050000000E+03 0. -1.
     100001    1    1    2    0    0  0.11508310398E+04 -0.63927379452E+04  0.18931252373E+03  0.65000000000E+04  0.15050000000E+03 0.  1.
</event>
<event>
 4    1  0.5640637E-004  0.6500000E+04  0.7818608E-02  0.7223770E-01
         52   -1    0    0    0    0  0.00000000000E+00  0.00000000000E+00  0.64930732323E+04  0.65000000000E+04  0.30000000000E+03 0. -1.
        -52   -1    0    0    0    0 -0.00000000000E+00 -0.00000000000E+00 -0.64930732323E+04  0.65000000000E+04  0.30000000000E+03 0.  1.
     100001    1    1    2    0    0 -0.41726986634E+03  0.23659998412E+03  0.64805289951E+04  0.65000000000E+04  0.15050000000E+03 0. -1.
     100001    1    1    2    0    0  0.41726986634E+03 -0.23659998412E+03 -0.64805289951E+04  0.65000000000E+04  0.15050000000E+03 0.  1.
</event>
<event>
 4    1  0.5640637E-004  0.6500000E+04  0.7818608E-02  0.7223770E-01
         52   -1    0    0    0    0  0.00000000000E+00  0.00000000000E+00  0.64930732323E+04  0.65000000000E+04  0.30000000000E+03 0.  1.
        -52   -1    0    0    0    0 -0.00000000000E+00 -0.00000000000E+00 -0.64930732323E+04  0.65000000000E+04  0.30000000000E+03 0. -1.
     100001    1    1    2    0    0  0.76835896952E+03  0.45286018947E+02 -0.64525129539E+04  0.65000000000E+04  0.15050000000E+03 0. -1.
     100001    1    1    2    0    0 -0.76835896952E+03 -0.45286018947E+02  0.64525129539E+04  0.65000000000E+04  0.15050000000E+03 0.  1.
</event>
<event>
 4    1  0.5640637E-004  0.6500000E+04  0.7818608E-02  0.7223770E-01
         52   -1    0    0    0    0  0.00000000000E+00  0.00000000000E+00  0.64930732323E+04  0.65000000000E+04  0.30000000000E+03 0.  1.
        -52   -1    0    0    0    0 -0.00000000000E+00 -0.00000000000E+00 -0.64930732323E+04  0.65000000000E+04  0.30000000000E+03 0. -1.
     100001    1    1    2    0    0 -0.12551295735E+04  0.42969794545E+04  0.47104104993E+04  0.65000000000E+04  0.15050000000E+03 0.  1.
     100001    1    1    2    0    0  0.12551295735E+04 -0.42969794545E+04 -0.47104104993E+04  0.65000000000E+04  0.15050000000E+03 0. -1.
</event>
<event>
 4    1  0.5640637E-004  0.6500000E+04  0.7818608E-02  0.7223770E-01
         52   -1    0    0    0    0  0.00000000000E+00  0.00000000000E+00  0.64930732323E+04  0.65000000000E+04  0.30000000000E+03 0.  1.
        -52   -1    0    0    0    0 -0.00000000000E+00 -0.00000000000E+00 -0.64930732323E+04  0.65000000000E+04  0.30000000000E+03 0. -1.
     100001    1    1    2    0    0  0.63820410290E+04 -0.98405376148E+03 -0.72700773663E+03  0.65000000000E+04  0.15050000000E+03 0. -1.
     100001    1    1    2    0    0 -0.63820410290E+04  0.98405376148E+03  0.72700773663E+03  0.65000000000E+04  0.15050000000E+03 0.  1.
</event>
<event>
 4    1  0.5640637E-004  0.6500000E+04  0.7818608E-02  0.7223770E-01
         52   -1    0    0    0    0  0.00000000000E+00  0.00000000000E+00  0.64930732323E+04  0.65000000000E+04  0.30000000000E+03 0. -1.
        -52   -1    0    0    0    0 -0.00000000000E+00 -0.00000000000E+00 -0.64930732323E+04  0.65000000000E+04  0.30000000000E+03 0.  1.
     100001    1    1    2    0    0 -0.19287711058E+04 -0.58421672535E+04 -0.20919544816E+04  0.65000000000E+04  0.15050000000E+03 0.  1.
     100001    1    1    2    0    0  0.19287711058E+04  0.58421672535E+04  0.20919544816E+04  0.65000000000E+04  0.15050000000E+03 0. -1.
</event>
<event>
 4    1  0.5640637E-004  0.6500000E+04  0.7818608E-02  0.7223770E-01
         52   -1    0    0    0    0  0.00000000000E+00  0.00000000000E+00  0.64930732323E+04  0.65000000000E+04  0.30000000000E+03 0.  1.
        -52   -1    0    0    0    0 -0.00000000000E+00 -0.00000000000E+00 -0.64930732323E+04  0.65000000000E+04  0.30000000000E+03 0. -1.
     100001    1    1    2    0    0  0.50867415250E+04  0.19995654339E+04  0.35148468648E+04  0.65000000000E+04  0.15050000000E+03 0.  1.
     100001    1    1    2    0    0 -0.50867415250E+04 -0.19995654339E+04 -0.35148468648E+04  0.65000000000E+04  0.15050000000E+03 0. -1.
</event>
<event>
 4    1  0.5640637E-004  0.6500000E+04  0.7818608E-02  0.7223770E-01
         52   -1    0    0    0    0  0.00000000000E+00  0.00000000000E+00  0.64930732323E+04  0.65000000000E+04  0.30000000000E+03 0. -1.
        -52   -1    0    0    0    0 -0.00000000000E+00 -0.00000000000E+00 -0.64930732323E+04  0.65000000000E+04  0.30000000000E+03 0.  1.
     100001    1    1    2    0    0  0.57685008687E+04  0.85752576260E+03 -0.28664258309E+04  0.65000000000E+04  0.15050000000E+03 0. -1.
     100001    1    1    2    0    0 -0.57685008687E+04 -0.85752576260E+03  0.28664258309E+04  0.65000000000E+04  0.15050000000E+03 0.  1.
</event>
<event>
 4    1  0.5640637E-004  0.6500000E+04  0.7818608E-02  0.7223770E-01
         52   -1    0    0    0    0  0.00000000000E+00  0.00000000000E+00  0.64930732323E+04  0.65000000000E+04  0.30000000000E+03 0.  1.
        -52   -1    0    0    0    0 -0.00000000000E+00 -0.00000000000E+00 -0.64930732323E+04  0.65000000000E+04  0.30000000000E+03 0. -1.
     100001    1    1    2    0    0  0.21934122996E+04  0.15970712484E+04 -0.59047146977E+04  0.65000000000E+04  0.15050000000E+03 0. -1.
     100001    1    1    2    0    0 -0.21934122996E+04 -0.15970712484E+04  0.59047146977E+04  0.65000000000E+04  0.15050000000E+03 0.  1.
</event>
<event>
 4    1  0.5640637E-004  0.6500000E+04  0.7818608E-02  0.7223770E-01
         52   -1    0    0    0    0  0.00000000000E+00  0.00000000000E+00  0.64930732323E+04  0.65000000000E+04  0.30000000000E+03 0.  1.
        -52   -1    0    0    0    0 -0.00000000000E+00 -0.00000000000E+00 -0.64930732323E+04  0.65000000000E+04  0.30000000000E+03 0. -1.
     100001    1    1    2    0    0  0.37097703400E+03  0.65315171761E+03 -0.64546974076E+04  0.65000000000E+04  0.15050000000E+03 0. -1.
     100001    1    1    2    0    0 -0.37097703400E+03 -0.65315171761E+03  0.64546974076E+04  0.65000000000E+04  0.15050000000E+03 0.  1.
</event>
<event>
 4    1  0.5640637E-004  0.6500000E+04  0.7818608E-02  0.7223770E-01
         52   -1    0    0    0    0  0.00000000000E+00  0.00000000000E+00  0.64930732323E+04  0.65000000000E+04  0.30000000000E+03 0.  1.
        -52   -1    0    0    0    0 -0.00000000000E+00 -0.00000000000E+00 -0.64930732323E+04  0.65000000000E+04  0.30000000000E+03 0. -1.
     100001    1    1    2    0    0 -0.30551581936E+04 -0.12924683281E+04 -0.55877440692E+04  0.65000000000E+04  0.15050000000E+03 0. -1.
     100001    1    1    2    0    0  0.30551581936E+04  0.12924683281E+04  0.55877440692E+04  0.65000000000E+04  0.15050000000E+03 0.  1.
</event>
<event>
 4    1  0.5640637E-004  0.6500000E+04  0.7818608E-02  0.7223770E-01
         52   -1    0    0    0    0  0.00000000000E+00  0.00000000000E+00  0.64930732323E+04  0.65000000000E+04  0.30000000000E+03 0.  1.
        -52   -1    0    0    0    0 -0.00000000000E+00 -0.00000000000E+00 -0.64930732323E+04  0.65000000000E+04  0.30000000000E+03 0. -1.
     100001    1    1    2    0    0 -0.15014573449E+04 -0.69580698909E+03  0.62840137035E+04  0.65000000000E+04  0.15050000000E+03 0.  1.
     100001    1    1    2    0    0  0.15014573449E+04  0.69580698909E+03 -0.62840137035E+04  0.65000000000E+04  0.15050000000E+03 0. -1.
</event>
<event>
 4    1  0.5640637E-004  0.6500000E+04  0.7818608E-02  0.7223770E-01
         52   -1    0    0    0    0  0.00000000000E+00  0.00000000000E+00  0.64930732323E+04  0.65000000000E+04  0.30000000000E+03 0.  1.
        -52   -1    0    0    0    0 -0.00000000000E+00 -0.00000000000E+00 -0.64930732323E+04  0.65000000000E+04  0.30000000000E+03 0. -1.
     100001    1    1    2    0    0 -0.26670679775E+04  0.56602919826E+04  0.17536227715E+04  0.65000000000E+04  0.15050000000E+03 0.  1.
     100001    1    1    2    0    0  0.26670679775E+04 -0.56602919826E+04 -0.17536227715E+04  0.65000000000E+04  0.15050000000E+03 0. -1.
</event>
<event>
 4    1  0.5640637E-004  0.6500000E+04  0.7818608E-02  0.7223770E-01
         52   -1    0    0    0    0  0.00000000000E+00  0.00000000000E+00  0.64930732323E+04  0.65000000000E+04  0.30000000000E+03 0.  1.
        -52   -1    0    0    0    0 -0.00000000000E+00 -0.00000000000E+00 -0.64930732323E+04  0.65000000000E+04  0.30000000000E+03 0. -1.
     100001    1    1    2    0    0 -0.12360830804E+04 -0.39173810187E+04 -0.50352332938E+04  0.65000000000E+04  0.15050000000E+03 0. -1.
     100001    1    1    2    0    0  0.12360830804E+04  0.39173810187E+04  0.50352332938E+04  0.65000000000E+04  0.15050000000E+03 0.  1.
</event>
<event>
 4    1  0.5640637E-004  0.6500000E+04  0.7818608E-02  0.7223770E-01
         52   -1    0    0    0    0  0.00000000000E+00  0.00000000000E+00  0.64930732323E+04  0.65000000000E+04  0.30000000000E+03 0. -1.
        -52   -1    0    0    0    0 -0.00000000000E+00 -0.00000000000E+00 -0.64930732323E+04  0.65000000000E+04  0.30000000000E+03 0.  1.
     100001    1    1    2    0    0 -0.40541284466E+03  0.59603780690E+02 -0.64853247848E+04  0.65000000000E+04  0.15050000000E+03 0.  1.
     100001    1    1    2    0    0  0.40541284466E+03 -0.59603780690E+02  0.64853247848E+04  0.65000000000E+04  0.15050000000E+03 0. -1.
</event>
<event>
 4    1  0.5640637E-004  0.6500000E+04  0.7818608E-02  0.7223770E-01
         52   -1    0    0    0    0  0.00000000000E+00  0.00000000000E+00  0.64930732323E+04  0.65000000000E+04  0.30000000000E+03 0.  1.
        -52   -1    0    0    0    0 -0.00000000000E+00 -0.00000000000E+00 -0.64930732323E+04  0.65000000000E+04  0.30000000000E+03 0.  1.
     100001    1    1    2    0    0 -0.22936910832E+03 -0.19034298281E+03  0.64914181125E+04  0.65000000000E+04  0.15050000000E+03 0.  1.
     100001    1    1    2    0    0  0.22936910832E+03  0.19034298281E+03 -0.64914181125E+04  0.65000000000E+04  0.15050000000E+03 0.  1.
</event>
<event>
 4    1  0.5640637E-004  0.6500000E+04  0.7818608E-02  0.7223770E-01
         52   -1    0    0    0    0  0.00000000000E+00  0.00000000000E+00  0.64930732323E+04  0.65000000000E+04  0.30000000000E+03 0.  1.
        -52   -1    0    0    0    0 -0.00000000000E+00 -0.00000000000E+00 -0.64930732323E+04  0.65000000000E+04  0.30000000000E+03 0. -1.
     100001    1    1    2    0    0 -0.24819223907E+03 -0.72133643705E+03 -0.64533265923E+04  0.65000000000E+04  0.15050000000E+03 0. -1.
     100001    1    1    2    0    0  0.24819223907E+03  0.72133643705E+03  0.64533265923E+04  0.65000000000E+04  0.15050000000E+03 0.  1.
</event>
<event>
 4    1  0.5640637E-004  0.6500000E+04  0.7818608E-02  0.7223770E-01
         52   -1    0    0    0    0  0.00000000000E+00  0.00000000000E+00  0.64930732323E+04  0.65000000000E+04  0.30000000000E+03 0. -1.
        -52   -1    0    0    0    0 -0.00000000000E+00 -0.00000000000E+00 -0.64930732323E+04  0.65000000000E+04  0.30000000000E+03 0.  1.
     100001    1    1    2    0    0  0.23505650473E+04 -0.52882370388E+04  0.29557981544E+04  0.65000000000E+04  0.15050000000E+03 0. -1.
     100001    1    1    2    0    0 -0.23505650473E+04  0.52882370388E+04 -0.29557981544E+04  0.65000000000E+04  0.15050000000E+03 0.  1.
</event>
<event>
 4    1  0.5640637E-004  0.6500000E+04  0.7818608E-02  0.7223770E-01
         52   -1    0    0    0    0  0.00000000000E+00  0.00000000000E+00  0.64930732323E+04  0.65000000000E+04  0.30000000000E+03 0.  1.
        -52   -1    0    0    0    0 -0.00000000000E+00 -0.00000000000E+00 -0.64930732323E+04  0.65000000000E+04  0.30000000000E+03 0. -1.
     100001    1    1    2    0    0 -0.25659657225E+04  0.34292562147E+04  0.48870616402E+04  0.65000000000E+04  0.15050000000E+03 0.  1.
     100001    1    1    2    0    0  0.25659657225E+04 -0.34292562147E+04 -0.48870616402E+04  0.65000000000E+04  0.15050000000E+03 0. -1.
</event>
<event>
 4    1  0.5640637E-004  0.6500000E+04  0.7818608E-02  0.7223770E-01
         52   -1    0    0    0    0  0.00000000000E+00  0.00000000000E+00  0.64930732323E+04  0.65000000000E+04  0.30000000000E+03 0. -1.
        -52   -1    0    0    0    0 -0.00000000000E+00 -0.00000000000E+00 -0.64930732323E+04  0.65000000000E+04  0.30000000000E+03 0.  1.
     100001    1    1    2    0    0 -0.16150802467E+04  0.30669480862E+04 -0.54966075886E+04  0.65000000000E+04  0.15050000000E+03 0.  1.
     100001    1    1    2    0    0  0.16150802467E+04 -0.30669480862E+04  0.54966075886E+04  0.65000000000E+04  0.15050000000E+03 0. -1.
</event>
<event>
 4    1  0.5640637E-004  0.6500000E+04  0.7818608E-02  0.7223770E-01
         52   -1    0    0    0    0  0.00000000000E+00  0.00000000000E+00  0.64930732323E+04  0.65000000000E+04  0.30000000000E+03 0. -1.
        -52   -1    0    0    0    0 -0.00000000000E+00 -0.00000000000E+00 -0.64930732323E+04  0.65000000000E+04  0.30000000000E+03 0.  1.
     100001    1    1    2    0    0 -0.83840395780E+03  0.16153030754E+03 -0.64419202505E+04  0.65000000000E+04  0.15050000000E+03 0.  1.
     100001    1    1    2    0    0  0.83840395780E+03 -0.16153030754E+03  0.64419202505E+04  0.65000000000E+04  0.15050000000E+03 0. -1.
</event>
<event>
 4    1  0.5640637E-004  0.6500000E+04  0.7818608E-02  0.7223770E-01
         52   -1    0    0    0    0  0.00000000000E+00  0.00000000000E+00  0.64930732323E+04  0.65000000000E+04  0.30000000000E+03 0. -1.
        -52   -1    0    0    0    0 -0.00000000000E+00 -0.00000000000E+00 -0.64930732323E+04  0.65000000000E+04  0.30000000000E+03 0.  1.
     100001    1    1    2    0    0  0.13316859172E+04 -0.99666436322E+02 -0.63595620108E+04  0.65000000000E+04  0.15050000000E+03 0.  1.
     100001    1    1    2    0    0 -0.13316859172E+04  0.99666436322E+02  0.63595620108E+04  0.65000000000E+04  0.15050000000E+03 0. -1.
</event>
<event>
 4    1  0.5640637E-004  0.6500000E+04  0.7818608E-02  0.7223770E-01
         52   -1    0    0    0    0  0.00000000000E+00  0.00000000000E+00  0.64930732323E+04  0.65000000000E+04  0.30000000000E+03 0.  1.
        -52   -1    0    0    0    0 -0.00000000000E+00 -0.00000000000E+00 -0.64930732323E+04  0.65000000000E+04  0.30000000000E+03 0. -1.
     100001    1    1    2    0    0  0.23972132638E+03  0.49921248061E+03 -0.64746173891E+04  0.65000000000E+04  0.15050000000E+03 0. -1.
     100001    1    1    2    0    0 -0.23972132638E+03 -0.49921248061E+03  0.64746173891E+04  0.65000000000E+04  0.15050000000E+03 0.  1.
</event>
<event>
 4    1  0.5640637E-004  0.6500000E+04  0.7818608E-02  0.7223770E-01
         52   -1    0    0    0    0  0.00000000000E+00  0.00000000000E+00  0.64930732323E+04  0.65000000000E+04  0.30000000000E+03 0.  1.
        -52   -1    0    0    0    0 -0.00000000000E+00 -0.00000000000E+00 -0.64930732323E+04  0.65000000000E+04  0.30000000000E+03 0. -1.
     100001    1    1    2    0    0  0.28322663696E+03  0.47683030743E+03  0.64745474962E+04  0.65000000000E+04  0.15050000000E+03 0.  1.
     100001    1    1    2    0    0 -0.28322663696E+03 -0.47683030743E+03 -0.64745474962E+04  0.65000000000E+04  0.15050000000E+03 0. -1.
</event>
<event>
 4    1  0.5640637E-004  0.6500000E+04  0.7818608E-02  0.7223770E-01
         52   -1    0    0    0    0  0.00000000000E+00  0.00000000000E+00  0.64930732323E+04  0.65000000000E+04  0.30000000000E+03 0. -1.
        -52   -1    0    0    0    0 -0.00000000000E+00 -0.00000000000E+00 -0.64930732323E+04  0.65000000000E+04  0.30000000000E+03 0.  1.
     100001    1    1    2    0    0 -0.20336010243E+04  0.22509246311E+04 -0.57467516850E+04  0.65000000000E+04  0.15050000000E+03 0.  1.
     100001    1    1    2    0    0  0.20336010243E+04 -0.22509246311E+04  0.57467516850E+04  0.65000000000E+04  0.15050000000E+03 0. -1.
</event>
<event>
 4    1  0.5640637E-004  0.6500000E+04  0.7818608E-02  0.7223770E-01
         52   -1    0    0    0    0  0.00000000000E+00  0.00000000000E+00  0.64930732323E+04  0.65000000000E+04  0.30000000000E+03 0. -1.
        -52   -1    0    0    0    0 -0.00000000000E+00 -0.00000000000E+00 -0.64930732323E+04  0.65000000000E+04  0.30000000000E+03 0.  1.
     100001    1    1    2    0    0 -0.19452231025E+04 -0.22110319813E+03  0.61963352239E+04  0.65000000000E+04  0.15050000000E+03 0. -1.
     100001    1    1    2    0    0  0.19452231025E+04  0.22110319813E+03 -0.61963352239E+04  0.65000000000E+04  0.15050000000E+03 0.  1.
</event>
<event>
 4    1  0.5640637E-004  0.6500000E+04  0.7818608E-02  0.7223770E-01
         52   -1    0    0    0    0  0.00000000000E+00  0.00000000000E+00  0.64930732323E+04  0.65000000000E+04  0.30000000000E+03 0. -1.
        -52   -1    0    0    0    0 -0.00000000000E+00 -0.00000000000E+00 -0.64930732323E+04  0.65000000000E+04  0.30000000000E+03 0.  1.
     100001    1    1    2    0    0 -0.30801361971E+03 -0.11861548148E+04 -0.63816544967E+04  0.65000000000E+04  0.15050000000E+03 0.  1.
     100001    1    1    2    0    0  0.30801361971E+03  0.11861548148E+04  0.63816544967E+04  0.65000000000E+04  0.15050000000E+03 0. -1.
</event>
<event>
 4    1  0.5640637E-004  0.6500000E+04  0.7818608E-02  0.7223770E-01
         52   -1    0    0    0    0  0.00000000000E+00  0.00000000000E+00  0.64930732323E+04  0.65000000000E+04  0.30000000000E+03 0.  1.
        -52   -1    0    0    0    0 -0.00000000000E+00 -0.00000000000E+00 -0.64930732323E+04  0.65000000000E+04  0.30000000000E+03 0. -1.
     100001    1    1    2    0    0  0.16885258963E+04  0.56480354090E+03  0.62495781464E+04  0.65000000000E+04  0.15050000000E+03 0.  1.
     100001    1    1    2    0    0 -0.16885258963E+04 -0.56480354090E+03 -0.62495781464E+04  0.65000000000E+04  0.15050000000E+03 0. -1.
</event>
<event>
 4    1  0.5640637E-004  0.6500000E+04  0.7818608E-02  0.7223770E-01
         52   -1    0    0    0    0  0.00000000000E+00  0.00000000000E+00  0.64930732323E+04  0.65000000000E+04  0.30000000000E+03 0. -1.
        -52   -1    0    0    0    0 -0.00000000000E+00 -0.00000000000E+00 -0.64930732323E+04  0.65000000000E+04  0.30000000000E+03 0.  1.
     100001    1    1    2    0    0  0.20328407729E+04 -0.21205271491E+04  0.57964017073E+04  0.65000000000E+04  0.15050000000E+03 0. -1.
     100001    1    1    2    0    0 -0.20328407729E+04  0.21205271491E+04 -0.57964017073E+04  0.65000000000E+04  0.15050000000E+03 0.  1.
</event>
<event>
 4    1  0.5640637E-004  0.6500000E+04  0.7818608E-02  0.7223770E-01
         52   -1    0    0    0    0  0.00000000000E+00  0.00000000000E+00  0.64930732323E+04  0.65000000000E+04  0.30000000000E+03 0.  1.
        -52   -1    0    0    0    0 -0.00000000000E+00 -0.00000000000E+00 -0.64930732323E+04  0.65000000000E+04  0.30000000000E+03 0. -1.
     100001    1    1    2    0    0 -0.23865663600E+03  0.22360231371E+03 -0.64900227092E+04  0.65000000000E+04  0.15050000000E+03 0. -1.
     100001    1    1    2    0    0  0.23865663600E+03 -0.22360231371E+03  0.64900227092E+04  0.65000000000E+04  0.15050000000E+03 0.  1.
</event>
<event>
 4    1  0.5640637E-004  0.6500000E+04  0.7818608E-02  0.7223770E-01
         52   -1    0    0    0    0  0.00000000000E+00  0.00000000000E+00  0.64930732323E+04  0.65000000000E+04  0.30000000000E+03 0.  1.
        -52   -1    0    0    0    0 -0.00000000000E+00 -0.00000000000E+00 -0.64930732323E+04  0.65000000000E+04  0.30000000000E+03 0. -1.
     100001    1    1    2    0    0 -0.14816322721E+04  0.16143371753E+03  0.63250339695E+04  0.65000000000E+04  0.15050000000E+03 0.  1.
     100001    1    1    2    0    0  0.14816322721E+04 -0.16143371753E+03 -0.63250339695E+04  0.65000000000E+04  0.15050000000E+03 0. -1.
</event>
<event>
 4    1  0.5640637E-004  0.6500000E+04  0.7818608E-02  0.7223770E-01
         52   -1    0    0    0    0  0.00000000000E+00  0.00000000000E+00  0.64930732323E+04  0.65000000000E+04  0.30000000000E+03 0.  1.
        -52   -1    0    0    0    0 -0.00000000000E+00 -0.00000000000E+00 -0.64930732323E+04  0.65000000000E+04  0.30000000000E+03 0. -1.
     100001    1    1    2    0    0  0.12472726009E+04 -0.57087176165E+04  0.28429217336E+04  0.65000000000E+04  0.15050000000E+03 0.  1.
     100001    1    1    2    0    0 -0.12472726009E+04  0.57087176165E+04 -0.28429217336E+04  0.65000000000E+04  0.15050000000E+03 0. -1.
</event>
<event>
 4    1  0.5640637E-004  0.6500000E+04  0.7818608E-02  0.7223770E-01
         52   -1    0    0    0    0  0.00000000000E+00  0.00000000000E+00  0.64930732323E+04  0.65000000000E+04  0.30000000000E+03 0.  1.
        -52   -1    0    0    0    0 -0.00000000000E+00 -0.00000000000E+00 -0.64930732323E+04  0.65000000000E+04  0.30000000000E+03 0. -1.
     100001    1    1    2    0    0 -0.50981836684E+03 -0.50251445198E+03  0.64587084009E+04  0.65000000000E+04  0.15050000000E+03 0.  1.
     100001    1    1    2    0    0  0.50981836684E+03  0.50251445198E+03 -0.64587084009E+04  0.65000000000E+04  0.15050000000E+03 0. -1.
</event>
<event>
 4    1  0.5640637E-004  0.6500000E+04  0.7818608E-02  0.7223770E-01
         52   -1    0    0    0    0  0.00000000000E+00  0.00000000000E+00  0.64930732323E+04  0.65000000000E+04  0.30000000000E+03 0.  1.
        -52   -1    0    0    0    0 -0.00000000000E+00 -0.00000000000E+00 -0.64930732323E+04  0.65000000000E+04  0.30000000000E+03 0.  1.
     100001    1    1    2    0    0 -0.37281355196E+03 -0.10351350856E+03 -0.64867283556E+04  0.65000000000E+04  0.15050000000E+03 0.  1.
     100001    1    1    2    0    0  0.37281355196E+03  0.10351350856E+03  0.64867283556E+04  0.65000000000E+04  0.15050000000E+03 0.  1.
</event>
<event>
 4    1  0.5640637E-004  0.6500000E+04  0.7818608E-02  0.7223770E-01
         52   -1    0    0    0    0  0.00000000000E+00  0.00000000000E+00  0.64930732323E+04  0.65000000000E+04  0.30000000000E+03 0. -1.
        -52   -1    0    0    0    0 -0.00000000000E+00 -0.00000000000E+00 -0.64930732323E+04  0.65000000000E+04  0.30000000000E+03 0.  1.
     100001    1    1    2    0    0 -0.35350132125E+04  0.42388108016E+04 -0.34297980007E+04  0.65000000000E+04  0.15050000000E+03 0.  1.
     100001    1    1    2    0    0  0.35350132125E+04 -0.42388108016E+04  0.34297980007E+04  0.65000000000E+04  0.15050000000E+03 0. -1.
</event>
<event>
 4    1  0.5640637E-004  0.6500000E+04  0.7818608E-02  0.7223770E-01
         52   -1    0    0    0    0  0.00000000000E+00  0.00000000000E+00  0.64930732323E+04  0.65000000000E+04  0.30000000000E+03 0. -1.
        -52   -1    0    0    0    0 -0.00000000000E+00 -0.00000000000E+00 -0.64930732323E+04  0.65000000000E+04  0.30000000000E+03 0.  1.
     100001    1    1    2    0    0  0.10248629235E+04 -0.13108419238E+04  0.62816159695E+04  0.65000000000E+04  0.15050000000E+03 0. -1.
     100001    1    1    2    0    0 -0.10248629235E+04  0.13108419238E+04 -0.62816159695E+04  0.65000000000E+04  0.15050000000E+03 0.  1.
</event>
<event>
 4    1  0.5640637E-004  0.6500000E+04  0.7818608E-02  0.7223770E-01
         52   -1    0    0    0    0  0.00000000000E+00  0.00000000000E+00  0.64930732323E+04  0.65000000000E+04  0.30000000000E+03 0. -1.
        -52   -1    0    0    0    0 -0.00000000000E+00 -0.00000000000E+00 -0.64930732323E+04  0.65000000000E+04  0.30000000000E+03 0.  1.
     100001    1    1    2    0    0  0.18442179211E+04  0.28119251744E+03  0.62247201365E+04  0.65000000000E+04  0.15050000000E+03 0. -1.
     100001    1    1    2    0    0 -0.18442179211E+04 -0.28119251744E+03 -0.62247201365E+04  0.65000000000E+04  0.15050000000E+03 0.  1.
</event>
<event>
 4    1  0.5640637E-004  0.6500000E+04  0.7818608E-02  0.7223770E-01
         52   -1    0    0    0    0  0.00000000000E+00  0.00000000000E+00  0.64930732323E+04  0.65000000000E+04  0.30000000000E+03 0.  1.
        -52   -1    0    0    0    0 -0.00000000000E+00 -0.00000000000E+00 -0.64930732323E+04  0.65000000000E+04  0.30000000000E+03 0.  1.
     100001    1    1    2    0    0 -0.17639028046E+04  0.16313147881E+04  0.60377817705E+04  0.65000000000E+04  0.15050000000E+03 0.  1.
     100001    1    1    2    0    0  0.17639028046E+04 -0.16313147881E+04 -0.60377817705E+04  0.65000000000E+04  0.15050000000E+03 0.  1.
</event>
<event>
 4    1  0.5640637E-004  0.6500000E+04  0.7818608E-02  0.7223770E-01
         52   -1    0    0    0    0  0.00000000000E+00  0.00000000000E+00  0.64930732323E+04  0.65000000000E+04  0.30000000000E+03 0.  1.
        -52   -1    0    0    0    0 -0.00000000000E+00 -0.00000000000E+00 -0.64930732323E+04  0.65000000000E+04  0.30000000000E+03 0. -1.
     100001    1    1    2    0    0  0.93586218064E+02  0.87179703082E+03 -0.64388322937E+04  0.65000000000E+04  0.15050000000E+03 0. -1.
     100001    1    1    2    0    0 -0.93586218064E+02 -0.87179703082E+03  0.64388322937E+04  0.65000000000E+04  0.15050000000E+03 0.  1.
</event>
<event>
 4    1  0.5640637E-004  0.6500000E+04  0.7818608E-02  0.7223770E-01
         52   -1    0    0    0    0  0.00000000000E+00  0.00000000000E+00  0.64930732323E+04  0.65000000000E+04  0.30000000000E+03 0. -1.
        -52   -1    0    0    0    0 -0.00000000000E+00 -0.00000000000E+00 -0.64930732323E+04  0.65000000000E+04  0.30000000000E+03 0.  1.
     100001    1    1    2    0    0  0.27842223243E+03  0.45500856976E+03  0.64763259655E+04  0.65000000000E+04  0.15050000000E+03 0. -1.
     100001    1    1    2    0    0 -0.27842223243E+03 -0.45500856976E+03 -0.64763259655E+04  0.65000000000E+04  0.15050000000E+03 0.  1.
</event>
<event>
 4    1  0.5640637E-004  0.6500000E+04  0.7818608E-02  0.7223770E-01
         52   -1    0    0    0    0  0.00000000000E+00  0.00000000000E+00  0.64930732323E+04  0.65000000000E+04  0.30000000000E+03 0. -1.
        -52   -1    0    0    0    0 -0.00000000000E+00 -0.00000000000E+00 -0.64930732323E+04  0.65000000000E+04  0.30000000000E+03 0.  1.
     100001    1    1    2    0    0 -0.67270188406E+03  0.89324877853E+03 -0.64013224059E+04  0.65000000000E+04  0.15050000000E+03 0.  1.
     100001    1    1    2    0    0  0.67270188406E+03 -0.89324877853E+03  0.64013224059E+04  0.65000000000E+04  0.15050000000E+03 0. -1.
</event>
<event>
 4    1  0.5640637E-004  0.6500000E+04  0.7818608E-02  0.7223770E-01
         52   -1    0    0    0    0  0.00000000000E+00  0.00000000000E+00  0.64930732323E+04  0.65000000000E+04  0.30000000000E+03 0. -1.
        -52   -1    0    0    0    0 -0.00000000000E+00 -0.00000000000E+00 -0.64930732323E+04  0.65000000000E+04  0.30000000000E+03 0.  1.
     100001    1    1    2    0    0  0.85403900947E+03  0.59032864861E+04  0.25785995779E+04  0.65000000000E+04  0.15050000000E+03 0. -1.
     100001    1    1    2    0    0 -0.85403900947E+03 -0.59032864861E+04 -0.25785995779E+04  0.65000000000E+04  0.15050000000E+03 0.  1.
</event>
<event>
 4    1  0.5640637E-004  0.6500000E+04  0.7818608E-02  0.7223770E-01
         52   -1    0    0    0    0  0.00000000000E+00  0.00000000000E+00  0.64930732323E+04  0.65000000000E+04  0.30000000000E+03 0.  1.
        -52   -1    0    0    0    0 -0.00000000000E+00 -0.00000000000E+00 -0.64930732323E+04  0.65000000000E+04  0.30000000000E+03 0. -1.
     100001    1    1    2    0    0  0.54046788899E+03  0.12315474425E+04  0.63575573224E+04  0.65000000000E+04  0.15050000000E+03 0.  1.
     100001    1    1    2    0    0 -0.54046788899E+03 -0.12315474425E+04 -0.63575573224E+04  0.65000000000E+04  0.15050000000E+03 0. -1.
</event>
<event>
 4    1  0.5640637E-004  0.6500000E+04  0.7818608E-02  0.7223770E-01
         52   -1    0    0    0    0  0.00000000000E+00  0.00000000000E+00  0.64930732323E+04  0.65000000000E+04  0.30000000000E+03 0.  1.
        -52   -1    0    0    0    0 -0.00000000000E+00 -0.00000000000E+00 -0.64930732323E+04  0.65000000000E+04  0.30000000000E+03 0. -1.
     100001    1    1    2    0    0 -0.17623584801E+03  0.39069895871E+03 -0.64841071089E+04  0.65000000000E+04  0.15050000000E+03 0. -1.
     100001    1    1    2    0    0  0.17623584801E+03 -0.39069895871E+03  0.64841071089E+04  0.65000000000E+04  0.15050000000E+03 0.  1.
</event>
<event>
 4    1  0.5640637E-004  0.6500000E+04  0.7818608E-02  0.7223770E-01
         52   -1    0    0    0    0  0.00000000000E+00  0.00000000000E+00  0.64930732323E+04  0.65000000000E+04  0.30000000000E+03 0. -1.
        -52   -1    0    0    0    0 -0.00000000000E+00 -0.00000000000E+00 -0.64930732323E+04  0.65000000000E+04  0.30000000000E+03 0.  1.
     100001    1    1    2    0    0 -0.10366312085E+04 -0.11685306594E+04  0.63077160356E+04  0.65000000000E+04  0.15050000000E+03 0. -1.
     100001    1    1    2    0    0  0.10366312085E+04  0.11685306594E+04 -0.63077160356E+04  0.65000000000E+04  0.15050000000E+03 0.  1.
</event>
<event>
 4    1  0.5640637E-004  0.6500000E+04  0.7818608E-02  0.7223770E-01
         52   -1    0    0    0    0  0.00000000000E+00  0.00000000000E+00  0.64930732323E+04  0.65000000000E+04  0.30000000000E+03 0. -1.
        -52   -1    0    0    0    0 -0.00000000000E+00 -0.00000000000E+00 -0.64930732323E+04  0.65000000000E+04  0.30000000000E+03 0.  1.
     100001    1    1    2    0    0  0.32273831897E+04 -0.27062098612E+04  0.49485124718E+04  0.65000000000E+04  0.15050000000E+03 0. -1.
     100001    1    1    2    0    0 -0.32273831897E+04  0.27062098612E+04 -0.49485124718E+04  0.65000000000E+04  0.15050000000E+03 0.  1.
</event>
<event>
 4    1  0.5640637E-004  0.6500000E+04  0.7818608E-02  0.7223770E-01
         52   -1    0    0    0    0  0.00000000000E+00  0.00000000000E+00  0.64930732323E+04  0.65000000000E+04  0.30000000000E+03 0. -1.
        -52   -1    0    0    0    0 -0.00000000000E+00 -0.00000000000E+00 -0.64930732323E+04  0.65000000000E+04  0.30000000000E+03 0.  1.
     100001    1    1    2    0    0  0.10756682568E+03  0.56757155565E+04  0.31625989392E+04  0.65000000000E+04  0.15050000000E+03 0.  1.
     100001    1    1    2    0    0 -0.10756682568E+03 -0.56757155565E+04 -0.31625989392E+04  0.65000000000E+04  0.15050000000E+03 0. -1.
</event>
<event>
 4    1  0.5640637E-004  0.6500000E+04  0.7818608E-02  0.7223770E-01
         52   -1    0    0    0    0  0.00000000000E+00  0.00000000000E+00  0.64930732323E+04  0.65000000000E+04  0.30000000000E+03 0.  1.
        -52   -1    0    0    0    0 -0.00000000000E+00 -0.00000000000E+00 -0.64930732323E+04  0.65000000000E+04  0.30000000000E+03 0. -1.
     100001    1    1    2    0    0  0.28658176498E+04  0.33470199458E+04 -0.47761801086E+04  0.65000000000E+04  0.15050000000E+03 0. -1.
     100001    1    1    2    0    0 -0.28658176498E+04 -0.33470199458E+04  0.47761801086E+04  0.65000000000E+04  0.15050000000E+03 0.  1.
</event>
<event>
 4    1  0.5640637E-004  0.6500000E+04  0.7818608E-02  0.7223770E-01
         52   -1    0    0    0    0  0.00000000000E+00  0.00000000000E+00  0.64930732323E+04  0.65000000000E+04  0.30000000000E+03 0.  1.
        -52   -1    0    0    0    0 -0.00000000000E+00 -0.00000000000E+00 -0.64930732323E+04  0.65000000000E+04  0.30000000000E+03 0. -1.
     100001    1    1    2    0    0  0.31291551402E+04  0.17607164315E+03 -0.56925158441E+04  0.65000000000E+04  0.15050000000E+03 0. -1.
     100001    1    1    2    0    0 -0.31291551402E+04 -0.17607164315E+03  0.56925158441E+04  0.65000000000E+04  0.15050000000E+03 0.  1.
</event>
<event>
 4    1  0.5640637E-004  0.6500000E+04  0.7818608E-02  0.7223770E-01
         52   -1    0    0    0    0  0.00000000000E+00  0.00000000000E+00  0.64930732323E+04  0.65000000000E+04  0.30000000000E+03 0. -1.
        -52   -1    0    0    0    0 -0.00000000000E+00 -0.00000000000E+00 -0.64930732323E+04  0.65000000000E+04  0.30000000000E+03 0.  1.
     100001    1    1    2    0    0 -0.64221860662E+04  0.94495370514E+03 -0.29989727589E+03  0.65000000000E+04  0.15050000000E+03 0. -1.
     100001    1    1    2    0    0  0.64221860662E+04 -0.94495370514E+03  0.29989727589E+03  0.65000000000E+04  0.15050000000E+03 0.  1.
</event>
<event>
 4    1  0.5640637E-004  0.6500000E+04  0.7818608E-02  0.7223770E-01
         52   -1    0    0    0    0  0.00000000000E+00  0.00000000000E+00  0.64930732323E+04  0.65000000000E+04  0.30000000000E+03 0. -1.
        -52   -1    0    0    0    0 -0.00000000000E+00 -0.00000000000E+00 -0.64930732323E+04  0.65000000000E+04  0.30000000000E+03 0.  1.
     100001    1    1    2    0    0  0.16627709232E+04  0.11705815849E+04  0.61718944709E+04  0.65000000000E+04  0.15050000000E+03 0. -1.
     100001    1    1    2    0    0 -0.16627709232E+04 -0.11705815849E+04 -0.61718944709E+04  0.65000000000E+04  0.15050000000E+03 0.  1.
</event>
<event>
 4    1  0.5640637E-004  0.6500000E+04  0.7818608E-02  0.7223770E-01
         52   -1    0    0    0    0  0.00000000000E+00  0.00000000000E+00  0.64930732323E+04  0.65000000000E+04  0.30000000000E+03 0. -1.
        -52   -1    0    0    0    0 -0.00000000000E+00 -0.00000000000E+00 -0.64930732323E+04  0.65000000000E+04  0.30000000000E+03 0.  1.
     100001    1    1    2    0    0  0.15031473186E+04  0.38276365393E+04 -0.50316097237E+04  0.65000000000E+04  0.15050000000E+03 0.  1.
     100001    1    1    2    0    0 -0.15031473186E+04 -0.38276365393E+04  0.50316097237E+04  0.65000000000E+04  0.15050000000E+03 0. -1.
</event>
<event>
 4    1  0.5640637E-004  0.6500000E+04  0.7818608E-02  0.7223770E-01
         52   -1    0    0    0    0  0.00000000000E+00  0.00000000000E+00  0.64930732323E+04  0.65000000000E+04  0.30000000000E+03 0.  1.
        -52   -1    0    0    0    0 -0.00000000000E+00 -0.00000000000E+00 -0.64930732323E+04  0.65000000000E+04  0.30000000000E+03 0. -1.
     100001    1    1    2    0    0  0.40780886202E+04  0.24190398348E+04 -0.44435109129E+04  0.65000000000E+04  0.15050000000E+03 0. -1.
     100001    1    1    2    0    0 -0.40780886202E+04 -0.24190398348E+04  0.44435109129E+04  0.65000000000E+04  0.15050000000E+03 0.  1.
</event>
<event>
 4    1  0.5640637E-004  0.6500000E+04  0.7818608E-02  0.7223770E-01
         52   -1    0    0    0    0  0.00000000000E+00  0.00000000000E+00  0.64930732323E+04  0.65000000000E+04  0.30000000000E+03 0. -1.
        -52   -1    0    0    0    0 -0.00000000000E+00 -0.00000000000E+00 -0.64930732323E+04  0.65000000000E+04  0.30000000000E+03 0.  1.
     100001    1    1    2    0    0 -0.14797392861E+04 -0.59727946261E+02 -0.63272548524E+04  0.65000000000E+04  0.15050000000E+03 0.  1.
     100001    1    1    2    0    0  0.14797392861E+04  0.59727946261E+02  0.63272548524E+04  0.65000000000E+04  0.15050000000E+03 0. -1.
</event>
<event>
 4    1  0.5640637E-004  0.6500000E+04  0.7818608E-02  0.7223770E-01
         52   -1    0    0    0    0  0.00000000000E+00  0.00000000000E+00  0.64930732323E+04  0.65000000000E+04  0.30000000000E+03 0. -1.
        -52   -1    0    0    0    0 -0.00000000000E+00 -0.00000000000E+00 -0.64930732323E+04  0.65000000000E+04  0.30000000000E+03 0.  1.
     100001    1    1    2    0    0 -0.71868516333E+01 -0.23223991693E+03  0.64941021489E+04  0.65000000000E+04  0.15050000000E+03 0. -1.
     100001    1    1    2    0    0  0.71868516333E+01  0.23223991693E+03 -0.64941021489E+04  0.65000000000E+04  0.15050000000E+03 0.  1.
</event>
<event>
 4    1  0.5640637E-004  0.6500000E+04  0.7818608E-02  0.7223770E-01
         52   -1    0    0    0    0  0.00000000000E+00  0.00000000000E+00  0.64930732323E+04  0.65000000000E+04  0.30000000000E+03 0. -1.
        -52   -1    0    0    0    0 -0.00000000000E+00 -0.00000000000E+00 -0.64930732323E+04  0.65000000000E+04  0.30000000000E+03 0. -1.
     100001    1    1    2    0    0  0.61094317716E+03  0.82898813333E+02 -0.64689431881E+04  0.65000000000E+04  0.15050000000E+03 0. -1.
     100001    1    1    2    0    0 -0.61094317716E+03 -0.82898813333E+02  0.64689431881E+04  0.65000000000E+04  0.15050000000E+03 0. -1.
</event>
<event>
 4    1  0.5640637E-004  0.6500000E+04  0.7818608E-02  0.7223770E-01
         52   -1    0    0    0    0  0.00000000000E+00  0.00000000000E+00  0.64930732323E+04  0.65000000000E+04  0.30000000000E+03 0.  1.
        -52   -1    0    0    0    0 -0.00000000000E+00 -0.00000000000E+00 -0.64930732323E+04  0.65000000000E+04  0.30000000000E+03 0. -1.
     100001    1    1    2    0    0  0.20079293563E+04  0.49604550270E+04 -0.36863878493E+04  0.65000000000E+04  0.15050000000E+03 0. -1.
     100001    1    1    2    0    0 -0.20079293563E+04 -0.49604550270E+04  0.36863878493E+04  0.65000000000E+04  0.15050000000E+03 0.  1.
</event>
<event>
 4    1  0.5640637E-004  0.6500000E+04  0.7818608E-02  0.7223770E-01
         52   -1    0    0    0    0  0.00000000000E+00  0.00000000000E+00  0.64930732323E+04  0.65000000000E+04  0.30000000000E+03 0.  1.
        -52   -1    0    0    0    0 -0.00000000000E+00 -0.00000000000E+00 -0.64930732323E+04  0.65000000000E+04  0.30000000000E+03 0. -1.
     100001    1    1    2    0    0  0.10196442581E+04  0.48651162166E+03  0.63992954127E+04  0.65000000000E+04  0.15050000000E+03 0.  1.
     100001    1    1    2    0    0 -0.10196442581E+04 -0.48651162166E+03 -0.63992954127E+04  0.65000000000E+04  0.15050000000E+03 0. -1.
</event>
<event>
 4    1  0.5640637E-004  0.6500000E+04  0.7818608E-02  0.7223770E-01
         52   -1    0    0    0    0  0.00000000000E+00  0.00000000000E+00  0.64930732323E+04  0.65000000000E+04  0.30000000000E+03 0.  1.
        -52   -1    0    0    0    0 -0.00000000000E+00 -0.00000000000E+00 -0.64930732323E+04  0.65000000000E+04  0.30000000000E+03 0. -1.
     100001    1    1    2    0    0  0.40699139622E+03 -0.16246502749E+03 -0.64834645729E+04  0.65000000000E+04  0.15050000000E+03 0. -1.
     100001    1    1    2    0    0 -0.40699139622E+03  0.16246502749E+03  0.64834645729E+04  0.65000000000E+04  0.15050000000E+03 0.  1.
</event>
<event>
 4    1  0.5640637E-004  0.6500000E+04  0.7818608E-02  0.7223770E-01
         52   -1    0    0    0    0  0.00000000000E+00  0.00000000000E+00  0.64930732323E+04  0.65000000000E+04  0.30000000000E+03 0. -1.
        -52   -1    0    0    0    0 -0.00000000000E+00 -0.00000000000E+00 -0.64930732323E+04  0.65000000000E+04  0.30000000000E+03 0.  1.
     100001    1    1    2    0    0  0.13540121920E+04 -0.74991373115E+03 -0.63112304767E+04  0.65000000000E+04  0.15050000000E+03 0.  1.
     100001    1    1    2    0    0 -0.13540121920E+04  0.74991373115E+03  0.63112304767E+04  0.65000000000E+04  0.15050000000E+03 0. -1.
</event>
<event>
 4    1  0.5640637E-004  0.6500000E+04  0.7818608E-02  0.7223770E-01
         52   -1    0    0    0    0  0.00000000000E+00  0.00000000000E+00  0.64930732323E+04  0.65000000000E+04  0.30000000000E+03 0.  1.
        -52   -1    0    0    0    0 -0.00000000000E+00 -0.00000000000E+00 -0.64930732323E+04  0.65000000000E+04  0.30000000000E+03 0. -1.
     100001    1    1    2    0    0  0.68554228472E+03  0.11312237696E+03 -0.64610049415E+04  0.65000000000E+04  0.15050000000E+03 0. -1.
     100001    1    1    2    0    0 -0.68554228472E+03 -0.11312237696E+03  0.64610049415E+04  0.65000000000E+04  0.15050000000E+03 0.  1.
</event>
<event>
 4    1  0.5640637E-004  0.6500000E+04  0.7818608E-02  0.7223770E-01
         52   -1    0    0    0    0  0.00000000000E+00  0.00000000000E+00  0.64930732323E+04  0.65000000000E+04  0.30000000000E+03 0. -1.
        -52   -1    0    0    0    0 -0.00000000000E+00 -0.00000000000E+00 -0.64930732323E+04  0.65000000000E+04  0.30000000000E+03 0.  1.
     100001    1    1    2    0    0  0.19224589829E+04  0.91457353220E+03  0.61396299940E+04  0.65000000000E+04  0.15050000000E+03 0. -1.
     100001    1    1    2    0    0 -0.19224589829E+04 -0.91457353220E+03 -0.61396299940E+04  0.65000000000E+04  0.15050000000E+03 0.  1.
</event>
<event>
 4    1  0.5640637E-004  0.6500000E+04  0.7818608E-02  0.7223770E-01
         52   -1    0    0    0    0  0.00000000000E+00  0.00000000000E+00  0.64930732323E+04  0.65000000000E+04  0.30000000000E+03 0.  1.
        -52   -1    0    0    0    0 -0.00000000000E+00 -0.00000000000E+00 -0.64930732323E+04  0.65000000000E+04  0.30000000000E+03 0.  1.
     100001    1    1    2    0    0 -0.39859070242E+02  0.98090626082E+02  0.64973948036E+04  0.65000000000E+04  0.15050000000E+03 0.  1.
     100001    1    1    2    0    0  0.39859070242E+02 -0.98090626082E+02 -0.64973948036E+04  0.65000000000E+04  0.15050000000E+03 0.  1.
</event>
<event>
 4    1  0.5640637E-004  0.6500000E+04  0.7818608E-02  0.7223770E-01
         52   -1    0    0    0    0  0.00000000000E+00  0.00000000000E+00  0.64930732323E+04  0.65000000000E+04  0.30000000000E+03 0.  1.
        -52   -1    0    0    0    0 -0.00000000000E+00 -0.00000000000E+00 -0.64930732323E+04  0.65000000000E+04  0.30000000000E+03 0. -1.
     100001    1    1    2    0    0 -0.36358926470E+03  0.42547714760E+04  0.48981702996E+04  0.65000000000E+04  0.15050000000E+03 0.  1.
     100001    1    1    2    0    0  0.36358926470E+03 -0.42547714760E+04 -0.48981702996E+04  0.65000000000E+04  0.15050000000E+03 0. -1.
</event>
<event>
 4    1  0.5640637E-004  0.6500000E+04  0.7818608E-02  0.7223770E-01
         52   -1    0    0    0    0  0.00000000000E+00  0.00000000000E+00  0.64930732323E+04  0.65000000000E+04  0.30000000000E+03 0. -1.
        -52   -1    0    0    0    0 -0.00000000000E+00 -0.00000000000E+00 -0.64930732323E+04  0.65000000000E+04  0.30000000000E+03 0. -1.
     100001    1    1    2    0    0  0.30114059327E+03  0.11669996314E+03 -0.64902268999E+04  0.65000000000E+04  0.15050000000E+03 0. -1.
     100001    1    1    2    0    0 -0.30114059327E+03 -0.11669996314E+03  0.64902268999E+04  0.65000000000E+04  0.15050000000E+03 0. -1.
</event>
<event>
 4    1  0.5640637E-004  0.6500000E+04  0.7818608E-02  0.7223770E-01
         52   -1    0    0    0    0  0.00000000000E+00  0.00000000000E+00  0.64930732323E+04  0.65000000000E+04  0.30000000000E+03 0.  1.
        -52   -1    0    0    0    0 -0.00000000000E+00 -0.00000000000E+00 -0.64930732323E+04  0.65000000000E+04  0.30000000000E+03 0. -1.
     100001    1    1    2    0    0 -0.40138302511E+04 -0.96084460505E+03  0.50192921921E+04  0.65000000000E+04  0.15050000000E+03 0.  1.
     100001    1    1    2    0    0  0.40138302511E+04  0.96084460505E+03 -0.50192921921E+04  0.65000000000E+04  0.15050000000E+03 0. -1.
</event>
<event>
 4    1  0.5640637E-004  0.6500000E+04  0.7818608E-02  0.7223770E-01
         52   -1    0    0    0    0  0.00000000000E+00  0.00000000000E+00  0.64930732323E+04  0.65000000000E+04  0.30000000000E+03 0. -1.
        -52   -1    0    0    0    0 -0.00000000000E+00 -0.00000000000E+00 -0.64930732323E+04  0.65000000000E+04  0.30000000000E+03 0.  1.
     100001    1    1    2    0    0  0.13237550137E+04 -0.30261661837E+04 -0.55961898326E+04  0.65000000000E+04  0.15050000000E+03 0. -1.
     100001    1    1    2    0    0 -0.13237550137E+04  0.30261661837E+04  0.55961898326E+04  0.65000000000E+04  0.15050000000E+03 0.  1.
</event>
<event>
 4    1  0.5640637E-004  0.6500000E+04  0.7818608E-02  0.7223770E-01
         52   -1    0    0    0    0  0.00000000000E+00  0.00000000000E+00  0.64930732323E+04  0.65000000000E+04  0.30000000000E+03 0.  1.
        -52   -1    0    0    0    0 -0.00000000000E+00 -0.00000000000E+00 -0.64930732323E+04  0.65000000000E+04  0.30000000000E+03 0. -1.
     100001    1    1    2    0    0  0.88031478235E+03  0.51434692681E+03 -0.64177755393E+04  0.65000000000E+04  0.15050000000E+03 0. -1.
     100001    1    1    2    0    0 -0.88031478235E+03 -0.51434692681E+03  0.64177755393E+04  0.65000000000E+04  0.15050000000E+03 0.  1.
</event>
<event>
 4    1  0.5640637E-004  0.6500000E+04  0.7818608E-02  0.7223770E-01
         52   -1    0    0    0    0  0.00000000000E+00  0.00000000000E+00  0.64930732323E+04  0.65000000000E+04  0.30000000000E+03 0. -1.
        -52   -1    0    0    0    0 -0.00000000000E+00 -0.00000000000E+00 -0.64930732323E+04  0.65000000000E+04  0.30000000000E+03 0.  1.
     100001    1    1    2    0    0  0.24864876954E+03  0.29767330686E+03 -0.64866720390E+04  0.65000000000E+04  0.15050000000E+03 0.  1.
     100001    1    1    2    0    0 -0.24864876954E+03 -0.29767330686E+03  0.64866720390E+04  0.65000000000E+04  0.15050000000E+03 0. -1.
</event>
<event>
 4    1  0.5640637E-004  0.6500000E+04  0.7818608E-02  0.7223770E-01
         52   -1    0    0    0    0  0.00000000000E+00  0.00000000000E+00  0.64930732323E+04  0.65000000000E+04  0.30000000000E+03 0.  1.
        -52   -1    0    0    0    0 -0.00000000000E+00 -0.00000000000E+00 -0.64930732323E+04  0.65000000000E+04  0.30000000000E+03 0. -1.
     100001    1    1    2    0    0 -0.14400473290E+03 -0.44243506601E+03  0.64815787891E+04  0.65000000000E+04  0.15050000000E+03 0.  1.
     100001    1    1    2    0    0  0.14400473290E+03  0.44243506601E+03 -0.64815787891E+04  0.65000000000E+04  0.15050000000E+03 0. -1.
</event>
<event>
 4    1  0.5640637E-004  0.6500000E+04  0.7818608E-02  0.7223770E-01
         52   -1    0    0    0    0  0.00000000000E+00  0.00000000000E+00  0.64930732323E+04  0.65000000000E+04  0.30000000000E+03 0. -1.
        -52   -1    0    0    0    0 -0.00000000000E+00 -0.00000000000E+00 -0.64930732323E+04  0.65000000000E+04  0.30000000000E+03 0.  1.
     100001    1    1    2    0    0  0.71538160651E+03 -0.18315349731E+04 -0.61936304821E+04  0.65000000000E+04  0.15050000000E+03 0.  1.
     100001    1    1    2    0    0 -0.71538160651E+03  0.18315349731E+04  0.61936304821E+04  0.65000000000E+04  0.15050000000E+03 0. -1.
</event>
<event>
 4    1  0.5640637E-004  0.6500000E+04  0.7818608E-02  0.7223770E-01
         52   -1    0    0    0    0  0.00000000000E+00  0.00000000000E+00  0.64930732323E+04  0.65000000000E+04  0.30000000000E+03 0.  1.
        -52   -1    0    0    0    0 -0.00000000000E+00 -0.00000000000E+00 -0.64930732323E+04  0.65000000000E+04  0.30000000000E+03 0. -1.
     100001    1    1    2    0    0 -0.78448252070E+03 -0.24911428257E+04 -0.59503062397E+04  0.65000000000E+04  0.15050000000E+03 0. -1.
     100001    1    1    2    0    0  0.78448252070E+03  0.24911428257E+04  0.59503062397E+04  0.65000000000E+04  0.15050000000E+03 0.  1.
</event>
<event>
 4    1  0.5640637E-004  0.6500000E+04  0.7818608E-02  0.7223770E-01
         52   -1    0    0    0    0  0.00000000000E+00  0.00000000000E+00  0.64930732323E+04  0.65000000000E+04  0.30000000000E+03 0.  1.
        -52   -1    0    0    0    0 -0.00000000000E+00 -0.00000000000E+00 -0.64930732323E+04  0.65000000000E+04  0.30000000000E+03 0. -1.
     100001    1    1    2    0    0 -0.23927289218E+03  0.15788663134E+04  0.62989903475E+04  0.65000000000E+04  0.15050000000E+03 0.  1.
     100001    1    1    2    0    0  0.23927289218E+03 -0.15788663134E+04 -0.62989903475E+04  0.65000000000E+04  0.15050000000E+03 0. -1.
</event>
<event>
 4    1  0.5640637E-004  0.6500000E+04  0.7818608E-02  0.7223770E-01
         52   -1    0    0    0    0  0.00000000000E+00  0.00000000000E+00  0.64930732323E+04  0.65000000000E+04  0.30000000000E+03 0. -1.
        -52   -1    0    0    0    0 -0.00000000000E+00 -0.00000000000E+00 -0.64930732323E+04  0.65000000000E+04  0.30000000000E+03 0.  1.
     100001    1    1    2    0    0  0.70969164870E+02  0.48789547565E+03  0.64795270763E+04  0.65000000000E+04  0.15050000000E+03 0. -1.
     100001    1    1    2    0    0 -0.70969164870E+02 -0.48789547565E+03 -0.64795270763E+04  0.65000000000E+04  0.15050000000E+03 0.  1.
</event>
<event>
 4    1  0.5640637E-004  0.6500000E+04  0.7818608E-02  0.7223770E-01
         52   -1    0    0    0    0  0.00000000000E+00  0.00000000000E+00  0.64930732323E+04  0.65000000000E+04  0.30000000000E+03 0. -1.
        -52   -1    0    0    0    0 -0.00000000000E+00 -0.00000000000E+00 -0.64930732323E+04  0.65000000000E+04  0.30000000000E+03 0.  1.
     100001    1    1    2    0    0  0.16152246955E+04 -0.18446656481E+04  0.60179404766E+04  0.65000000000E+04  0.15050000000E+03 0. -1.
     100001    1    1    2    0    0 -0.16152246955E+04  0.18446656481E+04 -0.60179404766E+04  0.65000000000E+04  0.15050000000E+03 0.  1.
</event>
<event>
 4    1  0.5640637E-004  0.6500000E+04  0.7818608E-02  0.7223770E-01
         52   -1    0    0    0    0  0.00000000000E+00  0.00000000000E+00  0.64930732323E+04  0.65000000000E+04  0.30000000000E+03 0. -1.
        -52   -1    0    0    0    0 -0.00000000000E+00 -0.00000000000E+00 -0.64930732323E+04  0.65000000000E+04  0.30000000000E+03 0.  1.
     100001    1    1    2    0    0  0.33488650206E+03 -0.13825059607E+03 -0.64881497789E+04  0.65000000000E+04  0.15050000000E+03 0.  1.
     100001    1    1    2    0    0 -0.33488650206E+03  0.13825059607E+03  0.64881497789E+04  0.65000000000E+04  0.15050000000E+03 0. -1.
</event>
<event>
 4    1  0.5640637E-004  0.6500000E+04  0.7818608E-02  0.7223770E-01
         52   -1    0    0    0    0  0.00000000000E+00  0.00000000000E+00  0.64930732323E+04  0.65000000000E+04  0.30000000000E+03 0. -1.
        -52   -1    0    0    0    0 -0.00000000000E+00 -0.00000000000E+00 -0.64930732323E+04  0.65000000000E+04  0.30000000000E+03 0.  1.
     100001    1    1    2    0    0 -0.27762599947E+03  0.32002865523E+03 -0.64844317572E+04  0.65000000000E+04  0.15050000000E+03 0.  1.
     100001    1    1    2    0    0  0.27762599947E+03 -0.32002865523E+03  0.64844317572E+04  0.65000000000E+04  0.15050000000E+03 0. -1.
</event>
<event>
 4    1  0.5640637E-004  0.6500000E+04  0.7818608E-02  0.7223770E-01
         52   -1    0    0    0    0  0.00000000000E+00  0.00000000000E+00  0.64930732323E+04  0.65000000000E+04  0.30000000000E+03 0.  1.
        -52   -1    0    0    0    0 -0.00000000000E+00 -0.00000000000E+00 -0.64930732323E+04  0.65000000000E+04  0.30000000000E+03 0. -1.
     100001    1    1    2    0    0  0.27162558790E+04  0.46745988643E+04  0.36051947531E+04  0.65000000000E+04  0.15050000000E+03 0.  1.
     100001    1    1    2    0    0 -0.27162558790E+04 -0.46745988643E+04 -0.36051947531E+04  0.65000000000E+04  0.15050000000E+03 0. -1.
</event>
<event>
 4    1  0.5640637E-004  0.6500000E+04  0.7818608E-02  0.7223770E-01
         52   -1    0    0    0    0  0.00000000000E+00  0.00000000000E+00  0.64930732323E+04  0.65000000000E+04  0.30000000000E+03 0. -1.
        -52   -1    0    0    0    0 -0.00000000000E+00 -0.00000000000E+00 -0.64930732323E+04  0.65000000000E+04  0.30000000000E+03 0.  1.
     100001    1    1    2    0    0  0.23235582113E+03 -0.36898719556E+03  0.64836107974E+04  0.65000000000E+04  0.15050000000E+03 0. -1.
     100001    1    1    2    0    0 -0.23235582113E+03  0.36898719556E+03 -0.64836107974E+04  0.65000000000E+04  0.15050000000E+03 0.  1.
</event>
<event>
 4    1  0.5640637E-004  0.6500000E+04  0.7818608E-02  0.7223770E-01
         52   -1    0    0    0    0  0.00000000000E+00  0.00000000000E+00  0.64930732323E+04  0.65000000000E+04  0.30000000000E+03 0.  1.
        -52   -1    0    0    0    0 -0.00000000000E+00 -0.00000000000E+00 -0.64930732323E+04  0.65000000000E+04  0.30000000000E+03 0. -1.
     100001    1    1    2    0    0  0.97206795883E+03  0.23528863426E+04  0.59788259292E+04  0.65000000000E+04  0.15050000000E+03 0.  1.
     100001    1    1    2    0    0 -0.97206795883E+03 -0.23528863426E+04 -0.59788259292E+04  0.65000000000E+04  0.15050000000E+03 0. -1.
</event>
<event>
 4    1  0.5640637E-004  0.6500000E+04  0.7818608E-02  0.7223770E-01
         52   -1    0    0    0    0  0.00000000000E+00  0.00000000000E+00  0.64930732323E+04  0.65000000000E+04  0.30000000000E+03 0.  1.
        -52   -1    0    0    0    0 -0.00000000000E+00 -0.00000000000E+00 -0.64930732323E+04  0.65000000000E+04  0.30000000000E+03 0.  1.
     100001    1    1    2    0    0 -0.72416214820E+02  0.40047302725E+03  0.64855012911E+04  0.65000000000E+04  0.15050000000E+03 0.  1.
     100001    1    1    2    0    0  0.72416214820E+02 -0.40047302725E+03 -0.64855012911E+04  0.65000000000E+04  0.15050000000E+03 0.  1.
</event>
<event>
 4    1  0.5640637E-004  0.6500000E+04  0.7818608E-02  0.7223770E-01
         52   -1    0    0    0    0  0.00000000000E+00  0.00000000000E+00  0.64930732323E+04  0.65000000000E+04  0.30000000000E+03 0. -1.
        -52   -1    0    0    0    0 -0.00000000000E+00 -0.00000000000E+00 -0.64930732323E+04  0.65000000000E+04  0.30000000000E+03 0.  1.
     100001    1    1    2    0    0 -0.43458185808E+03  0.46841514055E+04 -0.44829916316E+04  0.65000000000E+04  0.15050000000E+03 0.  1.
     100001    1    1    2    0    0  0.43458185808E+03 -0.46841514055E+04  0.44829916316E+04  0.65000000000E+04  0.15050000000E+03 0. -1.
</event>
<event>
 4    1  0.5640637E-004  0.6500000E+04  0.7818608E-02  0.7223770E-01
         52   -1    0    0    0    0  0.00000000000E+00  0.00000000000E+00  0.64930732323E+04  0.65000000000E+04  0.30000000000E+03 0.  1.
        -52   -1    0    0    0    0 -0.00000000000E+00 -0.00000000000E+00 -0.64930732323E+04  0.65000000000E+04  0.30000000000E+03 0. -1.
     100001    1    1    2    0    0 -0.87110333874E+03  0.28381940574E+03 -0.64333486823E+04  0.65000000000E+04  0.15050000000E+03 0. -1.
     100001    1    1    2    0    0  0.87110333874E+03 -0.28381940574E+03  0.64333486823E+04  0.65000000000E+04  0.15050000000E+03 0.  1.
</event>
<event>
 4    1  0.5640637E-004  0.6500000E+04  0.7818608E-02  0.7223770E-01
         52   -1    0    0    0    0  0.00000000000E+00  0.00000000000E+00  0.64930732323E+04  0.65000000000E+04  0.30000000000E+03 0.  1.
        -52   -1    0    0    0    0 -0.00000000000E+00 -0.00000000000E+00 -0.64930732323E+04  0.65000000000E+04  0.30000000000E+03 0.  1.
     100001    1    1    2    0    0 -0.14605859123E+03  0.53578052283E+03  0.64744849887E+04  0.65000000000E+04  0.15050000000E+03 0.  1.
     100001    1    1    2    0    0  0.14605859123E+03 -0.53578052283E+03 -0.64744849887E+04  0.65000000000E+04  0.15050000000E+03 0.  1.
</event>
<event>
 4    1  0.5640637E-004  0.6500000E+04  0.7818608E-02  0.7223770E-01
         52   -1    0    0    0    0  0.00000000000E+00  0.00000000000E+00  0.64930732323E+04  0.65000000000E+04  0.30000000000E+03 0.  1.
        -52   -1    0    0    0    0 -0.00000000000E+00 -0.00000000000E+00 -0.64930732323E+04  0.65000000000E+04  0.30000000000E+03 0. -1.
     100001    1    1    2    0    0 -0.12739622841E+04 -0.59993131281E+03  0.63438515327E+04  0.65000000000E+04  0.15050000000E+03 0.  1.
     100001    1    1    2    0    0  0.12739622841E+04  0.59993131281E+03 -0.63438515327E+04  0.65000000000E+04  0.15050000000E+03 0. -1.
</event>
<event>
 4    1  0.5640637E-004  0.6500000E+04  0.7818608E-02  0.7223770E-01
         52   -1    0    0    0    0  0.00000000000E+00  0.00000000000E+00  0.64930732323E+04  0.65000000000E+04  0.30000000000E+03 0.  1.
        -52   -1    0    0    0    0 -0.00000000000E+00 -0.00000000000E+00 -0.64930732323E+04  0.65000000000E+04  0.30000000000E+03 0. -1.
     100001    1    1    2    0    0 -0.47205235526E+02 -0.12257278267E+04  0.63814350040E+04  0.65000000000E+04  0.15050000000E+03 0.  1.
     100001    1    1    2    0    0  0.47205235526E+02  0.12257278267E+04 -0.63814350040E+04  0.65000000000E+04  0.15050000000E+03 0. -1.
</event>
<event>
 4    1  0.5640637E-004  0.6500000E+04  0.7818608E-02  0.7223770E-01
         52   -1    0    0    0    0  0.00000000000E+00  0.00000000000E+00  0.64930732323E+04  0.65000000000E+04  0.30000000000E+03 0. -1.
        -52   -1    0    0    0    0 -0.00000000000E+00 -0.00000000000E+00 -0.64930732323E+04  0.65000000000E+04  0.30000000000E+03 0.  1.
     100001    1    1    2    0    0 -0.94269950162E+03 -0.11722969008E+04 -0.63217392683E+04  0.65000000000E+04  0.15050000000E+03 0.  1.
     100001    1    1    2    0    0  0.94269950162E+03  0.11722969008E+04  0.63217392683E+04  0.65000000000E+04  0.15050000000E+03 0. -1.
</event>
<event>
 4    1  0.5640637E-004  0.6500000E+04  0.7818608E-02  0.7223770E-01
         52   -1    0    0    0    0  0.00000000000E+00  0.00000000000E+00  0.64930732323E+04  0.65000000000E+04  0.30000000000E+03 0. -1.
        -52   -1    0    0    0    0 -0.00000000000E+00 -0.00000000000E+00 -0.64930732323E+04  0.65000000000E+04  0.30000000000E+03 0.  1.
     100001    1    1    2    0    0  0.56161387472E+03 -0.25028765306E+03 -0.64691031601E+04  0.65000000000E+04  0.15050000000E+03 0.  1.
     100001    1    1    2    0    0 -0.56161387472E+03  0.25028765306E+03  0.64691031601E+04  0.65000000000E+04  0.15050000000E+03 0. -1.
</event>
<event>
 4    1  0.5640637E-004  0.6500000E+04  0.7818608E-02  0.7223770E-01
         52   -1    0    0    0    0  0.00000000000E+00  0.00000000000E+00  0.64930732323E+04  0.65000000000E+04  0.30000000000E+03 0. -1.
        -52   -1    0    0    0    0 -0.00000000000E+00 -0.00000000000E+00 -0.64930732323E+04  0.65000000000E+04  0.30000000000E+03 0.  1.
     100001    1    1    2    0    0 -0.17823763737E+03 -0.34050445160E+03  0.64868819793E+04  0.65000000000E+04  0.15050000000E+03 0. -1.
     100001    1    1    2    0    0  0.17823763737E+03  0.34050445160E+03 -0.64868819793E+04  0.65000000000E+04  0.15050000000E+03 0.  1.
</event>
<event>
 4    1  0.8828001E-004  0.6500000E+04  0.7818608E-02  0.7223770E-01
         52   -1    0    0    0    0  0.00000000000E+00  0.00000000000E+00  0.64930732323E+04  0.65000000000E+04  0.30000000000E+03 0.  1.
        -52   -1    0    0    0    0 -0.00000000000E+00 -0.00000000000E+00 -0.64930732323E+04  0.65000000000E+04  0.30000000000E+03 0.  1.
     100001    1    1    2    0    0 -0.11146413046E+03  0.65259869836E+02 -0.64969736529E+04  0.65000000000E+04  0.15050000000E+03 0.  1.
     100001    1    1    2    0    0  0.11146413046E+03 -0.65259869836E+02  0.64969736529E+04  0.65000000000E+04  0.15050000000E+03 0.  1.
</event>
<event>
 4    1  0.5640637E-004  0.6500000E+04  0.7818608E-02  0.7223770E-01
         52   -1    0    0    0    0  0.00000000000E+00  0.00000000000E+00  0.64930732323E+04  0.65000000000E+04  0.30000000000E+03 0.  1.
        -52   -1    0    0    0    0 -0.00000000000E+00 -0.00000000000E+00 -0.64930732323E+04  0.65000000000E+04  0.30000000000E+03 0. -1.
     100001    1    1    2    0    0  0.17149637544E+04 -0.51078952815E+04 -0.36325823961E+04  0.65000000000E+04  0.15050000000E+03 0. -1.
     100001    1    1    2    0    0 -0.17149637544E+04  0.51078952815E+04  0.36325823961E+04  0.65000000000E+04  0.15050000000E+03 0.  1.
</event>
<event>
 4    1  0.5640637E-004  0.6500000E+04  0.7818608E-02  0.7223770E-01
         52   -1    0    0    0    0  0.00000000000E+00  0.00000000000E+00  0.64930732323E+04  0.65000000000E+04  0.30000000000E+03 0. -1.
        -52   -1    0    0    0    0 -0.00000000000E+00 -0.00000000000E+00 -0.64930732323E+04  0.65000000000E+04  0.30000000000E+03 0.  1.
     100001    1    1    2    0    0  0.77153041057E+02  0.16682418401E+04 -0.62799973186E+04  0.65000000000E+04  0.15050000000E+03 0.  1.
     100001    1    1    2    0    0 -0.77153041057E+02 -0.16682418401E+04  0.62799973186E+04  0.65000000000E+04  0.15050000000E+03 0. -1.
</event>
<event>
 4    1  0.5640637E-004  0.6500000E+04  0.7818608E-02  0.7223770E-01
         52   -1    0    0    0    0  0.00000000000E+00  0.00000000000E+00  0.64930732323E+04  0.65000000000E+04  0.30000000000E+03 0. -1.
        -52   -1    0    0    0    0 -0.00000000000E+00 -0.00000000000E+00 -0.64930732323E+04  0.65000000000E+04  0.30000000000E+03 0.  1.
     100001    1    1    2    0    0 -0.69448319058E+03  0.17349028282E+03 -0.64587107049E+04  0.65000000000E+04  0.15050000000E+03 0.  1.
     100001    1    1    2    0    0  0.69448319058E+03 -0.17349028282E+03  0.64587107049E+04  0.65000000000E+04  0.15050000000E+03 0. -1.
</event>
<event>
 4    1  0.5640637E-004  0.6500000E+04  0.7818608E-02  0.7223770E-01
         52   -1    0    0    0    0  0.00000000000E+00  0.00000000000E+00  0.64930732323E+04  0.65000000000E+04  0.30000000000E+03 0. -1.
        -52   -1    0    0    0    0 -0.00000000000E+00 -0.00000000000E+00 -0.64930732323E+04  0.65000000000E+04  0.30000000000E+03 0.  1.
     100001    1    1    2    0    0  0.48935632523E+04  0.24111243940E+04  0.35308451683E+04  0.65000000000E+04  0.15050000000E+03 0. -1.
     100001    1    1    2    0    0 -0.48935632523E+04 -0.24111243940E+04 -0.35308451683E+04  0.65000000000E+04  0.15050000000E+03 0.  1.
</event>
<event>
 4    1  0.5640637E-004  0.6500000E+04  0.7818608E-02  0.7223770E-01
         52   -1    0    0    0    0  0.00000000000E+00  0.00000000000E+00  0.64930732323E+04  0.65000000000E+04  0.30000000000E+03 0.  1.
        -52   -1    0    0    0    0 -0.00000000000E+00 -0.00000000000E+00 -0.64930732323E+04  0.65000000000E+04  0.30000000000E+03 0.  1.
     100001    1    1    2    0    0 -0.21031210345E+03 -0.21255869034E+03  0.64913740743E+04  0.65000000000E+04  0.15050000000E+03 0.  1.
     100001    1    1    2    0    0  0.21031210345E+03  0.21255869034E+03 -0.64913740743E+04  0.65000000000E+04  0.15050000000E+03 0.  1.
</event>
<event>
 4    1  0.5640637E-004  0.6500000E+04  0.7818608E-02  0.7223770E-01
         52   -1    0    0    0    0  0.00000000000E+00  0.00000000000E+00  0.64930732323E+04  0.65000000000E+04  0.30000000000E+03 0. -1.
        -52   -1    0    0    0    0 -0.00000000000E+00 -0.00000000000E+00 -0.64930732323E+04  0.65000000000E+04  0.30000000000E+03 0.  1.
     100001    1    1    2    0    0  0.16924687998E+04 -0.13285633442E+04  0.61317060067E+04  0.65000000000E+04  0.15050000000E+03 0. -1.
     100001    1    1    2    0    0 -0.16924687998E+04  0.13285633442E+04 -0.61317060067E+04  0.65000000000E+04  0.15050000000E+03 0.  1.
</event>
<event>
 4    1  0.5640637E-004  0.6500000E+04  0.7818608E-02  0.7223770E-01
         52   -1    0    0    0    0  0.00000000000E+00  0.00000000000E+00  0.64930732323E+04  0.65000000000E+04  0.30000000000E+03 0.  1.
        -52   -1    0    0    0    0 -0.00000000000E+00 -0.00000000000E+00 -0.64930732323E+04  0.65000000000E+04  0.30000000000E+03 0. -1.
     100001    1    1    2    0    0  0.17101775076E+04  0.31375412519E+04  0.54275664469E+04  0.65000000000E+04  0.15050000000E+03 0.  1.
     100001    1    1    2    0    0 -0.17101775076E+04 -0.31375412519E+04 -0.54275664469E+04  0.65000000000E+04  0.15050000000E+03 0. -1.
</event>
<event>
 4    1  0.5640637E-004  0.6500000E+04  0.7818608E-02  0.7223770E-01
         52   -1    0    0    0    0  0.00000000000E+00  0.00000000000E+00  0.64930732323E+04  0.65000000000E+04  0.30000000000E+03 0.  1.
        -52   -1    0    0    0    0 -0.00000000000E+00 -0.00000000000E+00 -0.64930732323E+04  0.65000000000E+04  0.30000000000E+03 0.  1.
     100001    1    1    2    0    0 -0.34070979300E+03 -0.25481946514E+03 -0.64843144300E+04  0.65000000000E+04  0.15050000000E+03 0.  1.
     100001    1    1    2    0    0  0.34070979300E+03  0.25481946514E+03  0.64843144300E+04  0.65000000000E+04  0.15050000000E+03 0.  1.
</event>
<event>
 4    1  0.5640637E-004  0.6500000E+04  0.7818608E-02  0.7223770E-01
         52   -1    0    0    0    0  0.00000000000E+00  0.00000000000E+00  0.64930732323E+04  0.65000000000E+04  0.30000000000E+03 0.  1.
        -52   -1    0    0    0    0 -0.00000000000E+00 -0.00000000000E+00 -0.64930732323E+04  0.65000000000E+04  0.30000000000E+03 0. -1.
     100001    1    1    2    0    0 -0.44788869934E+03  0.57862586032E+03 -0.64569294232E+04  0.65000000000E+04  0.15050000000E+03 0. -1.
     100001    1    1    2    0    0  0.44788869934E+03 -0.57862586032E+03  0.64569294232E+04  0.65000000000E+04  0.15050000000E+03 0.  1.
</event>
<event>
 4    1  0.5640637E-004  0.6500000E+04  0.7818608E-02  0.7223770E-01
         52   -1    0    0    0    0  0.00000000000E+00  0.00000000000E+00  0.64930732323E+04  0.65000000000E+04  0.30000000000E+03 0. -1.
        -52   -1    0    0    0    0 -0.00000000000E+00 -0.00000000000E+00 -0.64930732323E+04  0.65000000000E+04  0.30000000000E+03 0.  1.
     100001    1    1    2    0    0  0.98935785213E+03  0.41761938818E+03  0.64089090208E+04  0.65000000000E+04  0.15050000000E+03 0. -1.
     100001    1    1    2    0    0 -0.98935785213E+03 -0.41761938818E+03 -0.64089090208E+04  0.65000000000E+04  0.15050000000E+03 0.  1.
</event>
<event>
 4    1  0.5640637E-004  0.6500000E+04  0.7818608E-02  0.7223770E-01
         52   -1    0    0    0    0  0.00000000000E+00  0.00000000000E+00  0.64930732323E+04  0.65000000000E+04  0.30000000000E+03 0. -1.
        -52   -1    0    0    0    0 -0.00000000000E+00 -0.00000000000E+00 -0.64930732323E+04  0.65000000000E+04  0.30000000000E+03 0.  1.
     100001    1    1    2    0    0  0.44114279187E+03 -0.11001268184E+04  0.63892459470E+04  0.65000000000E+04  0.15050000000E+03 0. -1.
     100001    1    1    2    0    0 -0.44114279187E+03  0.11001268184E+04 -0.63892459470E+04  0.65000000000E+04  0.15050000000E+03 0.  1.
</event>
<event>
 4    1  0.5640637E-004  0.6500000E+04  0.7818608E-02  0.7223770E-01
         52   -1    0    0    0    0  0.00000000000E+00  0.00000000000E+00  0.64930732323E+04  0.65000000000E+04  0.30000000000E+03 0.  1.
        -52   -1    0    0    0    0 -0.00000000000E+00 -0.00000000000E+00 -0.64930732323E+04  0.65000000000E+04  0.30000000000E+03 0. -1.
     100001    1    1    2    0    0  0.27996632558E+04 -0.53333599881E+04  0.24381358949E+04  0.65000000000E+04  0.15050000000E+03 0.  1.
     100001    1    1    2    0    0 -0.27996632558E+04  0.53333599881E+04 -0.24381358949E+04  0.65000000000E+04  0.15050000000E+03 0. -1.
</event>
<event>
 4    1  0.5640637E-004  0.6500000E+04  0.7818608E-02  0.7223770E-01
         52   -1    0    0    0    0  0.00000000000E+00  0.00000000000E+00  0.64930732323E+04  0.65000000000E+04  0.30000000000E+03 0.  1.
        -52   -1    0    0    0    0 -0.00000000000E+00 -0.00000000000E+00 -0.64930732323E+04  0.65000000000E+04  0.30000000000E+03 0. -1.
     100001    1    1    2    0    0  0.25110827388E+02 -0.10917107518E+04  0.64058478620E+04  0.65000000000E+04  0.15050000000E+03 0.  1.
     100001    1    1    2    0    0 -0.25110827388E+02  0.10917107518E+04 -0.64058478620E+04  0.65000000000E+04  0.15050000000E+03 0. -1.
</event>
<event>
 4    1  0.5640637E-004  0.6500000E+04  0.7818608E-02  0.7223770E-01
         52   -1    0    0    0    0  0.00000000000E+00  0.00000000000E+00  0.64930732323E+04  0.65000000000E+04  0.30000000000E+03 0. -1.
        -52   -1    0    0    0    0 -0.00000000000E+00 -0.00000000000E+00 -0.64930732323E+04  0.65000000000E+04  0.30000000000E+03 0. -1.
     100001    1    1    2    0    0  0.86031780482E+02 -0.39903491197E+03  0.64854236116E+04  0.65000000000E+04  0.15050000000E+03 0. -1.
     100001    1    1    2    0    0 -0.86031780482E+02  0.39903491197E+03 -0.64854236116E+04  0.65000000000E+04  0.15050000000E+03 0. -1.
</event>
<event>
 4    1  0.5640637E-004  0.6500000E+04  0.7818608E-02  0.7223770E-01
         52   -1    0    0    0    0  0.00000000000E+00  0.00000000000E+00  0.64930732323E+04  0.65000000000E+04  0.30000000000E+03 0. -1.
        -52   -1    0    0    0    0 -0.00000000000E+00 -0.00000000000E+00 -0.64930732323E+04  0.65000000000E+04  0.30000000000E+03 0.  1.
     100001    1    1    2    0    0 -0.25250594239E+04  0.31807287124E+04 -0.50729074025E+04  0.65000000000E+04  0.15050000000E+03 0.  1.
     100001    1    1    2    0    0  0.25250594239E+04 -0.31807287124E+04  0.50729074025E+04  0.65000000000E+04  0.15050000000E+03 0. -1.
</event>
<event>
 4    1  0.5640637E-004  0.6500000E+04  0.7818608E-02  0.7223770E-01
         52   -1    0    0    0    0  0.00000000000E+00  0.00000000000E+00  0.64930732323E+04  0.65000000000E+04  0.30000000000E+03 0. -1.
        -52   -1    0    0    0    0 -0.00000000000E+00 -0.00000000000E+00 -0.64930732323E+04  0.65000000000E+04  0.30000000000E+03 0.  1.
     100001    1    1    2    0    0 -0.61777695087E+03 -0.12346004571E+03 -0.64676470997E+04  0.65000000000E+04  0.15050000000E+03 0.  1.
     100001    1    1    2    0    0  0.61777695087E+03  0.12346004571E+03  0.64676470997E+04  0.65000000000E+04  0.15050000000E+03 0. -1.
</event>
<event>
 4    1  0.5640637E-004  0.6500000E+04  0.7818608E-02  0.7223770E-01
         52   -1    0    0    0    0  0.00000000000E+00  0.00000000000E+00  0.64930732323E+04  0.65000000000E+04  0.30000000000E+03 0.  1.
        -52   -1    0    0    0    0 -0.00000000000E+00 -0.00000000000E+00 -0.64930732323E+04  0.65000000000E+04  0.30000000000E+03 0.  1.
     100001    1    1    2    0    0 -0.17711934842E+03 -0.10307978668E+03 -0.64950252535E+04  0.65000000000E+04  0.15050000000E+03 0.  1.
     100001    1    1    2    0    0  0.17711934842E+03  0.10307978668E+03  0.64950252535E+04  0.65000000000E+04  0.15050000000E+03 0.  1.
</event>
<event>
 4    1  0.5640637E-004  0.6500000E+04  0.7818608E-02  0.7223770E-01
         52   -1    0    0    0    0  0.00000000000E+00  0.00000000000E+00  0.64930732323E+04  0.65000000000E+04  0.30000000000E+03 0. -1.
        -52   -1    0    0    0    0 -0.00000000000E+00 -0.00000000000E+00 -0.64930732323E+04  0.65000000000E+04  0.30000000000E+03 0.  1.
     100001    1    1    2    0    0  0.26764823728E+03  0.11200807495E+03 -0.64917769803E+04  0.65000000000E+04  0.15050000000E+03 0.  1.
     100001    1    1    2    0    0 -0.26764823728E+03 -0.11200807495E+03  0.64917769803E+04  0.65000000000E+04  0.15050000000E+03 0. -1.
</event>
<event>
 4    1  0.5640637E-004  0.6500000E+04  0.7818608E-02  0.7223770E-01
         52   -1    0    0    0    0  0.00000000000E+00  0.00000000000E+00  0.64930732323E+04  0.65000000000E+04  0.30000000000E+03 0.  1.
        -52   -1    0    0    0    0 -0.00000000000E+00 -0.00000000000E+00 -0.64930732323E+04  0.65000000000E+04  0.30000000000E+03 0. -1.
     100001    1    1    2    0    0  0.35776017246E+04 -0.99693391310E+03 -0.53323764330E+04  0.65000000000E+04  0.15050000000E+03 0. -1.
     100001    1    1    2    0    0 -0.35776017246E+04  0.99693391310E+03  0.53323764330E+04  0.65000000000E+04  0.15050000000E+03 0.  1.
</event>
<event>
 4    1  0.5640637E-004  0.6500000E+04  0.7818608E-02  0.7223770E-01
         52   -1    0    0    0    0  0.00000000000E+00  0.00000000000E+00  0.64930732323E+04  0.65000000000E+04  0.30000000000E+03 0. -1.
        -52   -1    0    0    0    0 -0.00000000000E+00 -0.00000000000E+00 -0.64930732323E+04  0.65000000000E+04  0.30000000000E+03 0.  1.
     100001    1    1    2    0    0  0.29415383825E+04  0.24089296172E+04 -0.52698918199E+04  0.65000000000E+04  0.15050000000E+03 0.  1.
     100001    1    1    2    0    0 -0.29415383825E+04 -0.24089296172E+04  0.52698918199E+04  0.65000000000E+04  0.15050000000E+03 0. -1.
</event>
<event>
 4    1  0.5640637E-004  0.6500000E+04  0.7818608E-02  0.7223770E-01
         52   -1    0    0    0    0  0.00000000000E+00  0.00000000000E+00  0.64930732323E+04  0.65000000000E+04  0.30000000000E+03 0.  1.
        -52   -1    0    0    0    0 -0.00000000000E+00 -0.00000000000E+00 -0.64930732323E+04  0.65000000000E+04  0.30000000000E+03 0.  1.
     100001    1    1    2    0    0  0.94861648830E+03  0.11910887981E+04 -0.63173399452E+04  0.65000000000E+04  0.15050000000E+03 0.  1.
     100001    1    1    2    0    0 -0.94861648830E+03 -0.11910887981E+04  0.63173399452E+04  0.65000000000E+04  0.15050000000E+03 0.  1.
</event>
<event>
 4    1  0.5640637E-004  0.6500000E+04  0.7818608E-02  0.7223770E-01
         52   -1    0    0    0    0  0.00000000000E+00  0.00000000000E+00  0.64930732323E+04  0.65000000000E+04  0.30000000000E+03 0.  1.
        -52   -1    0    0    0    0 -0.00000000000E+00 -0.00000000000E+00 -0.64930732323E+04  0.65000000000E+04  0.30000000000E+03 0. -1.
     100001    1    1    2    0    0 -0.29131144800E+03 -0.83915946014E+03 -0.64372586394E+04  0.65000000000E+04  0.15050000000E+03 0. -1.
     100001    1    1    2    0    0  0.29131144800E+03  0.83915946014E+03  0.64372586394E+04  0.65000000000E+04  0.15050000000E+03 0.  1.
</event>
<event>
 4    1  0.5640637E-004  0.6500000E+04  0.7818608E-02  0.7223770E-01
         52   -1    0    0    0    0  0.00000000000E+00  0.00000000000E+00  0.64930732323E+04  0.65000000000E+04  0.30000000000E+03 0. -1.
        -52   -1    0    0    0    0 -0.00000000000E+00 -0.00000000000E+00 -0.64930732323E+04  0.65000000000E+04  0.30000000000E+03 0.  1.
     100001    1    1    2    0    0  0.82471042266E+03 -0.58837902509E+03  0.64188014918E+04  0.65000000000E+04  0.15050000000E+03 0. -1.
     100001    1    1    2    0    0 -0.82471042266E+03  0.58837902509E+03 -0.64188014918E+04  0.65000000000E+04  0.15050000000E+03 0.  1.
</event>
<event>
 4    1  0.5640637E-004  0.6500000E+04  0.7818608E-02  0.7223770E-01
         52   -1    0    0    0    0  0.00000000000E+00  0.00000000000E+00  0.64930732323E+04  0.65000000000E+04  0.30000000000E+03 0.  1.
        -52   -1    0    0    0    0 -0.00000000000E+00 -0.00000000000E+00 -0.64930732323E+04  0.65000000000E+04  0.30000000000E+03 0. -1.
     100001    1    1    2    0    0 -0.30432525871E+03  0.10612559479E+04 -0.64037857319E+04  0.65000000000E+04  0.15050000000E+03 0. -1.
     100001    1    1    2    0    0  0.30432525871E+03 -0.10612559479E+04  0.64037857319E+04  0.65000000000E+04  0.15050000000E+03 0.  1.
</event>
<event>
 4    1  0.5640637E-004  0.6500000E+04  0.7818608E-02  0.7223770E-01
         52   -1    0    0    0    0  0.00000000000E+00  0.00000000000E+00  0.64930732323E+04  0.65000000000E+04  0.30000000000E+03 0.  1.
        -52   -1    0    0    0    0 -0.00000000000E+00 -0.00000000000E+00 -0.64930732323E+04  0.65000000000E+04  0.30000000000E+03 0.  1.
     100001    1    1    2    0    0  0.22877789474E+02  0.26942709537E+03 -0.64926293131E+04  0.65000000000E+04  0.15050000000E+03 0.  1.
     100001    1    1    2    0    0 -0.22877789474E+02 -0.26942709537E+03  0.64926293131E+04  0.65000000000E+04  0.15050000000E+03 0.  1.
</event>
<event>
 4    1  0.5640637E-004  0.6500000E+04  0.7818608E-02  0.7223770E-01
         52   -1    0    0    0    0  0.00000000000E+00  0.00000000000E+00  0.64930732323E+04  0.65000000000E+04  0.30000000000E+03 0. -1.
        -52   -1    0    0    0    0 -0.00000000000E+00 -0.00000000000E+00 -0.64930732323E+04  0.65000000000E+04  0.30000000000E+03 0.  1.
     100001    1    1    2    0    0  0.14486439872E+03 -0.29816363135E+04 -0.57720194863E+04  0.65000000000E+04  0.15050000000E+03 0.  1.
     100001    1    1    2    0    0 -0.14486439872E+03  0.29816363135E+04  0.57720194863E+04  0.65000000000E+04  0.15050000000E+03 0. -1.
</event>
<event>
 4    1  0.5640637E-004  0.6500000E+04  0.7818608E-02  0.7223770E-01
         52   -1    0    0    0    0  0.00000000000E+00  0.00000000000E+00  0.64930732323E+04  0.65000000000E+04  0.30000000000E+03 0.  1.
        -52   -1    0    0    0    0 -0.00000000000E+00 -0.00000000000E+00 -0.64930732323E+04  0.65000000000E+04  0.30000000000E+03 0. -1.
     100001    1    1    2    0    0 -0.42154236196E+04 -0.33651854444E+04  0.36239592137E+04  0.65000000000E+04  0.15050000000E+03 0.  1.
     100001    1    1    2    0    0  0.42154236196E+04  0.33651854444E+04 -0.36239592137E+04  0.65000000000E+04  0.15050000000E+03 0. -1.
</event>
<event>
 4    1  0.5640637E-004  0.6500000E+04  0.7818608E-02  0.7223770E-01
         52   -1    0    0    0    0  0.00000000000E+00  0.00000000000E+00  0.64930732323E+04  0.65000000000E+04  0.30000000000E+03 0.  1.
        -52   -1    0    0    0    0 -0.00000000000E+00 -0.00000000000E+00 -0.64930732323E+04  0.65000000000E+04  0.30000000000E+03 0. -1.
     100001    1    1    2    0    0  0.26520006954E+04  0.17693959177E+04 -0.56624623749E+04  0.65000000000E+04  0.15050000000E+03 0. -1.
     100001    1    1    2    0    0 -0.26520006954E+04 -0.17693959177E+04  0.56624623749E+04  0.65000000000E+04  0.15050000000E+03 0.  1.
</event>
<event>
 4    1  0.5640637E-004  0.6500000E+04  0.7818608E-02  0.7223770E-01
         52   -1    0    0    0    0  0.00000000000E+00  0.00000000000E+00  0.64930732323E+04  0.65000000000E+04  0.30000000000E+03 0. -1.
        -52   -1    0    0    0    0 -0.00000000000E+00 -0.00000000000E+00 -0.64930732323E+04  0.65000000000E+04  0.30000000000E+03 0.  1.
     100001    1    1    2    0    0  0.55549943620E+03 -0.17502644427E+04 -0.62334055304E+04  0.65000000000E+04  0.15050000000E+03 0.  1.
     100001    1    1    2    0    0 -0.55549943620E+03  0.17502644427E+04  0.62334055304E+04  0.65000000000E+04  0.15050000000E+03 0. -1.
</event>
<event>
 4    1  0.5640637E-004  0.6500000E+04  0.7818608E-02  0.7223770E-01
         52   -1    0    0    0    0  0.00000000000E+00  0.00000000000E+00  0.64930732323E+04  0.65000000000E+04  0.30000000000E+03 0.  1.
        -52   -1    0    0    0    0 -0.00000000000E+00 -0.00000000000E+00 -0.64930732323E+04  0.65000000000E+04  0.30000000000E+03 0. -1.
     100001    1    1    2    0    0  0.30480501470E+04  0.13098817926E+04  0.55875710054E+04  0.65000000000E+04  0.15050000000E+03 0.  1.
     100001    1    1    2    0    0 -0.30480501470E+04 -0.13098817926E+04 -0.55875710054E+04  0.65000000000E+04  0.15050000000E+03 0. -1.
</event>
<event>
 4    1  0.5640637E-004  0.6500000E+04  0.7818608E-02  0.7223770E-01
         52   -1    0    0    0    0  0.00000000000E+00  0.00000000000E+00  0.64930732323E+04  0.65000000000E+04  0.30000000000E+03 0. -1.
        -52   -1    0    0    0    0 -0.00000000000E+00 -0.00000000000E+00 -0.64930732323E+04  0.65000000000E+04  0.30000000000E+03 0.  1.
     100001    1    1    2    0    0 -0.17785615127E+04  0.75241429298E+02 -0.62496725852E+04  0.65000000000E+04  0.15050000000E+03 0.  1.
     100001    1    1    2    0    0  0.17785615127E+04 -0.75241429298E+02  0.62496725852E+04  0.65000000000E+04  0.15050000000E+03 0. -1.
</event>
<event>
 4    1  0.5640637E-004  0.6500000E+04  0.7818608E-02  0.7223770E-01
         52   -1    0    0    0    0  0.00000000000E+00  0.00000000000E+00  0.64930732323E+04  0.65000000000E+04  0.30000000000E+03 0.  1.
        -52   -1    0    0    0    0 -0.00000000000E+00 -0.00000000000E+00 -0.64930732323E+04  0.65000000000E+04  0.30000000000E+03 0. -1.
     100001    1    1    2    0    0 -0.65621441528E+02  0.35947603773E+03  0.64879750735E+04  0.65000000000E+04  0.15050000000E+03 0.  1.
     100001    1    1    2    0    0  0.65621441528E+02 -0.35947603773E+03 -0.64879750735E+04  0.65000000000E+04  0.15050000000E+03 0. -1.
</event>
<event>
 4    1  0.5640637E-004  0.6500000E+04  0.7818608E-02  0.7223770E-01
         52   -1    0    0    0    0  0.00000000000E+00  0.00000000000E+00  0.64930732323E+04  0.65000000000E+04  0.30000000000E+03 0.  1.
        -52   -1    0    0    0    0 -0.00000000000E+00 -0.00000000000E+00 -0.64930732323E+04  0.65000000000E+04  0.30000000000E+03 0. -1.
     100001    1    1    2    0    0 -0.75855146767E+03  0.41192339857E+04  0.49682854982E+04  0.65000000000E+04  0.15050000000E+03 0.  1.
     100001    1    1    2    0    0  0.75855146767E+03 -0.41192339857E+04 -0.49682854982E+04  0.65000000000E+04  0.15050000000E+03 0. -1.
</event>
<event>
 4    1  0.5640637E-004  0.6500000E+04  0.7818608E-02  0.7223770E-01
         52   -1    0    0    0    0  0.00000000000E+00  0.00000000000E+00  0.64930732323E+04  0.65000000000E+04  0.30000000000E+03 0.  1.
        -52   -1    0    0    0    0 -0.00000000000E+00 -0.00000000000E+00 -0.64930732323E+04  0.65000000000E+04  0.30000000000E+03 0. -1.
     100001    1    1    2    0    0  0.42142881563E+04 -0.48667297311E+04  0.88434541353E+03  0.65000000000E+04  0.15050000000E+03 0. -1.
     100001    1    1    2    0    0 -0.42142881563E+04  0.48667297311E+04 -0.88434541353E+03  0.65000000000E+04  0.15050000000E+03 0.  1.
</event>
<event>
 4    1  0.5640637E-004  0.6500000E+04  0.7818608E-02  0.7223770E-01
         52   -1    0    0    0    0  0.00000000000E+00  0.00000000000E+00  0.64930732323E+04  0.65000000000E+04  0.30000000000E+03 0.  1.
        -52   -1    0    0    0    0 -0.00000000000E+00 -0.00000000000E+00 -0.64930732323E+04  0.65000000000E+04  0.30000000000E+03 0. -1.
     100001    1    1    2    0    0 -0.26088040255E+04 -0.48796393915E+04 -0.34074346238E+04  0.65000000000E+04  0.15050000000E+03 0. -1.
     100001    1    1    2    0    0  0.26088040255E+04  0.48796393915E+04  0.34074346238E+04  0.65000000000E+04  0.15050000000E+03 0.  1.
</event>
<event>
 4    1  0.5640637E-004  0.6500000E+04  0.7818608E-02  0.7223770E-01
         52   -1    0    0    0    0  0.00000000000E+00  0.00000000000E+00  0.64930732323E+04  0.65000000000E+04  0.30000000000E+03 0.  1.
        -52   -1    0    0    0    0 -0.00000000000E+00 -0.00000000000E+00 -0.64930732323E+04  0.65000000000E+04  0.30000000000E+03 0.  1.
     100001    1    1    2    0    0 -0.22162546555E+03 -0.16537676421E+03 -0.64923710945E+04  0.65000000000E+04  0.15050000000E+03 0.  1.
     100001    1    1    2    0    0  0.22162546555E+03  0.16537676421E+03  0.64923710945E+04  0.65000000000E+04  0.15050000000E+03 0.  1.
</event>
<event>
 4    1  0.5640637E-004  0.6500000E+04  0.7818608E-02  0.7223770E-01
         52   -1    0    0    0    0  0.00000000000E+00  0.00000000000E+00  0.64930732323E+04  0.65000000000E+04  0.30000000000E+03 0. -1.
        -52   -1    0    0    0    0 -0.00000000000E+00 -0.00000000000E+00 -0.64930732323E+04  0.65000000000E+04  0.30000000000E+03 0.  1.
     100001    1    1    2    0    0 -0.10561031387E+04 -0.43460021403E+03  0.63971179889E+04  0.65000000000E+04  0.15050000000E+03 0. -1.
     100001    1    1    2    0    0  0.10561031387E+04  0.43460021403E+03 -0.63971179889E+04  0.65000000000E+04  0.15050000000E+03 0.  1.
</event>
<event>
 4    1  0.5640637E-004  0.6500000E+04  0.7818608E-02  0.7223770E-01
         52   -1    0    0    0    0  0.00000000000E+00  0.00000000000E+00  0.64930732323E+04  0.65000000000E+04  0.30000000000E+03 0. -1.
        -52   -1    0    0    0    0 -0.00000000000E+00 -0.00000000000E+00 -0.64930732323E+04  0.65000000000E+04  0.30000000000E+03 0.  1.
     100001    1    1    2    0    0  0.25956768843E+04 -0.17849563073E+04  0.56836381168E+04  0.65000000000E+04  0.15050000000E+03 0. -1.
     100001    1    1    2    0    0 -0.25956768843E+04  0.17849563073E+04 -0.56836381168E+04  0.65000000000E+04  0.15050000000E+03 0.  1.
</event>
<event>
 4    1  0.5640637E-004  0.6500000E+04  0.7818608E-02  0.7223770E-01
         52   -1    0    0    0    0  0.00000000000E+00  0.00000000000E+00  0.64930732323E+04  0.65000000000E+04  0.30000000000E+03 0.  1.
        -52   -1    0    0    0    0 -0.00000000000E+00 -0.00000000000E+00 -0.64930732323E+04  0.65000000000E+04  0.30000000000E+03 0. -1.
     100001    1    1    2    0    0  0.18838776206E+04 -0.67799159266E+03 -0.61821260308E+04  0.65000000000E+04  0.15050000000E+03 0. -1.
     100001    1    1    2    0    0 -0.18838776206E+04  0.67799159266E+03  0.61821260308E+04  0.65000000000E+04  0.15050000000E+03 0.  1.
</event>
<event>
 4    1  0.5640637E-004  0.6500000E+04  0.7818608E-02  0.7223770E-01
         52   -1    0    0    0    0  0.00000000000E+00  0.00000000000E+00  0.64930732323E+04  0.65000000000E+04  0.30000000000E+03 0.  1.
        -52   -1    0    0    0    0 -0.00000000000E+00 -0.00000000000E+00 -0.64930732323E+04  0.65000000000E+04  0.30000000000E+03 0. -1.
     100001    1    1    2    0    0 -0.42155357846E+04  0.25623915663E+04 -0.42297467134E+04  0.65000000000E+04  0.15050000000E+03 0. -1.
     100001    1    1    2    0    0  0.42155357846E+04 -0.25623915663E+04  0.42297467134E+04  0.65000000000E+04  0.15050000000E+03 0.  1.
</event>
<event>
 4    1  0.5640637E-004  0.6500000E+04  0.7818608E-02  0.7223770E-01
         52   -1    0    0    0    0  0.00000000000E+00  0.00000000000E+00  0.64930732323E+04  0.65000000000E+04  0.30000000000E+03 0. -1.
        -52   -1    0    0    0    0 -0.00000000000E+00 -0.00000000000E+00 -0.64930732323E+04  0.65000000000E+04  0.30000000000E+03 0.  1.
     100001    1    1    2    0    0 -0.20041268656E+04 -0.25169490272E+03 -0.61763642163E+04  0.65000000000E+04  0.15050000000E+03 0.  1.
     100001    1    1    2    0    0  0.20041268656E+04  0.25169490272E+03  0.61763642163E+04  0.65000000000E+04  0.15050000000E+03 0. -1.
</event>
<event>
 4    1  0.5640637E-004  0.6500000E+04  0.7818608E-02  0.7223770E-01
         52   -1    0    0    0    0  0.00000000000E+00  0.00000000000E+00  0.64930732323E+04  0.65000000000E+04  0.30000000000E+03 0.  1.
        -52   -1    0    0    0    0 -0.00000000000E+00 -0.00000000000E+00 -0.64930732323E+04  0.65000000000E+04  0.30000000000E+03 0. -1.
     100001    1    1    2    0    0  0.10357931904E+04 -0.55766330724E+04  0.31710638266E+04  0.65000000000E+04  0.15050000000E+03 0.  1.
     100001    1    1    2    0    0 -0.10357931904E+04  0.55766330724E+04 -0.31710638266E+04  0.65000000000E+04  0.15050000000E+03 0. -1.
</event>
<event>
 4    1  0.5640637E-004  0.6500000E+04  0.7818608E-02  0.7223770E-01
         52   -1    0    0    0    0  0.00000000000E+00  0.00000000000E+00  0.64930732323E+04  0.65000000000E+04  0.30000000000E+03 0.  1.
        -52   -1    0    0    0    0 -0.00000000000E+00 -0.00000000000E+00 -0.64930732323E+04  0.65000000000E+04  0.30000000000E+03 0. -1.
     100001    1    1    2    0    0 -0.59854492589E+03 -0.34709511154E+03 -0.64613171030E+04  0.65000000000E+04  0.15050000000E+03 0. -1.
     100001    1    1    2    0    0  0.59854492589E+03  0.34709511154E+03  0.64613171030E+04  0.65000000000E+04  0.15050000000E+03 0.  1.
</event>
<event>
 4    1  0.6423824E-004  0.6500000E+04  0.7818608E-02  0.7223770E-01
         52   -1    0    0    0    0  0.00000000000E+00  0.00000000000E+00  0.64930732323E+04  0.65000000000E+04  0.30000000000E+03 0. -1.
        -52   -1    0    0    0    0 -0.00000000000E+00 -0.00000000000E+00 -0.64930732323E+04  0.65000000000E+04  0.30000000000E+03 0.  1.
     100001    1    1    2    0    0  0.21381150266E+03  0.79777057135E+02 -0.64942489953E+04  0.65000000000E+04  0.15050000000E+03 0.  1.
     100001    1    1    2    0    0 -0.21381150266E+03 -0.79777057135E+02  0.64942489953E+04  0.65000000000E+04  0.15050000000E+03 0. -1.
</event>
<event>
 4    1  0.5640637E-004  0.6500000E+04  0.7818608E-02  0.7223770E-01
         52   -1    0    0    0    0  0.00000000000E+00  0.00000000000E+00  0.64930732323E+04  0.65000000000E+04  0.30000000000E+03 0.  1.
        -52   -1    0    0    0    0 -0.00000000000E+00 -0.00000000000E+00 -0.64930732323E+04  0.65000000000E+04  0.30000000000E+03 0. -1.
     100001    1    1    2    0    0  0.10268647269E+04 -0.31136984652E+04  0.56105062562E+04  0.65000000000E+04  0.15050000000E+03 0.  1.
     100001    1    1    2    0    0 -0.10268647269E+04  0.31136984652E+04 -0.56105062562E+04  0.65000000000E+04  0.15050000000E+03 0. -1.
</event>
<event>
 4    1  0.5640637E-004  0.6500000E+04  0.7818608E-02  0.7223770E-01
         52   -1    0    0    0    0  0.00000000000E+00  0.00000000000E+00  0.64930732323E+04  0.65000000000E+04  0.30000000000E+03 0.  1.
        -52   -1    0    0    0    0 -0.00000000000E+00 -0.00000000000E+00 -0.64930732323E+04  0.65000000000E+04  0.30000000000E+03 0. -1.
     100001    1    1    2    0    0 -0.13871910602E+03 -0.98022808824E+03  0.64224029502E+04  0.65000000000E+04  0.15050000000E+03 0.  1.
     100001    1    1    2    0    0  0.13871910602E+03  0.98022808824E+03 -0.64224029502E+04  0.65000000000E+04  0.15050000000E+03 0. -1.
</event>
<event>
 4    1  0.5640637E-004  0.6500000E+04  0.7818608E-02  0.7223770E-01
         52   -1    0    0    0    0  0.00000000000E+00  0.00000000000E+00  0.64930732323E+04  0.65000000000E+04  0.30000000000E+03 0. -1.
        -52   -1    0    0    0    0 -0.00000000000E+00 -0.00000000000E+00 -0.64930732323E+04  0.65000000000E+04  0.30000000000E+03 0.  1.
     100001    1    1    2    0    0 -0.28566892888E+04  0.69143798766E+03 -0.57955663715E+04  0.65000000000E+04  0.15050000000E+03 0.  1.
     100001    1    1    2    0    0  0.28566892888E+04 -0.69143798766E+03  0.57955663715E+04  0.65000000000E+04  0.15050000000E+03 0. -1.
</event>
<event>
 4    1  0.5640637E-004  0.6500000E+04  0.7818608E-02  0.7223770E-01
         52   -1    0    0    0    0  0.00000000000E+00  0.00000000000E+00  0.64930732323E+04  0.65000000000E+04  0.30000000000E+03 0. -1.
        -52   -1    0    0    0    0 -0.00000000000E+00 -0.00000000000E+00 -0.64930732323E+04  0.65000000000E+04  0.30000000000E+03 0.  1.
     100001    1    1    2    0    0 -0.33646204480E+04 -0.36748896517E+04 -0.41715542714E+04  0.65000000000E+04  0.15050000000E+03 0.  1.
     100001    1    1    2    0    0  0.33646204480E+04  0.36748896517E+04  0.41715542714E+04  0.65000000000E+04  0.15050000000E+03 0. -1.
</event>
<event>
 4    1  0.5640637E-004  0.6500000E+04  0.7818608E-02  0.7223770E-01
         52   -1    0    0    0    0  0.00000000000E+00  0.00000000000E+00  0.64930732323E+04  0.65000000000E+04  0.30000000000E+03 0.  1.
        -52   -1    0    0    0    0 -0.00000000000E+00 -0.00000000000E+00 -0.64930732323E+04  0.65000000000E+04  0.30000000000E+03 0. -1.
     100001    1    1    2    0    0  0.16492400627E+04 -0.22410810271E+04  0.58723856137E+04  0.65000000000E+04  0.15050000000E+03 0.  1.
     100001    1    1    2    0    0 -0.16492400627E+04  0.22410810271E+04 -0.58723856137E+04  0.65000000000E+04  0.15050000000E+03 0. -1.
</event>
<event>
 4    1  0.5640637E-004  0.6500000E+04  0.7818608E-02  0.7223770E-01
         52   -1    0    0    0    0  0.00000000000E+00  0.00000000000E+00  0.64930732323E+04  0.65000000000E+04  0.30000000000E+03 0.  1.
        -52   -1    0    0    0    0 -0.00000000000E+00 -0.00000000000E+00 -0.64930732323E+04  0.65000000000E+04  0.30000000000E+03 0.  1.
     100001    1    1    2    0    0 -0.39580740614E+04  0.41898815205E+04  0.30009818925E+04  0.65000000000E+04  0.15050000000E+03 0. -1.
     100001    1    1    2    0    0  0.39580740614E+04 -0.41898815205E+04 -0.30009818925E+04  0.65000000000E+04  0.15050000000E+03 0.  1.
</event>
<event>
 4    1  0.5640637E-004  0.6500000E+04  0.7818608E-02  0.7223770E-01
         52   -1    0    0    0    0  0.00000000000E+00  0.00000000000E+00  0.64930732323E+04  0.65000000000E+04  0.30000000000E+03 0.  1.
        -52   -1    0    0    0    0 -0.00000000000E+00 -0.00000000000E+00 -0.64930732323E+04  0.65000000000E+04  0.30000000000E+03 0. -1.
     100001    1    1    2    0    0  0.25466717969E+04  0.38688365551E+03 -0.59659143093E+04  0.65000000000E+04  0.15050000000E+03 0. -1.
     100001    1    1    2    0    0 -0.25466717969E+04 -0.38688365551E+03  0.59659143093E+04  0.65000000000E+04  0.15050000000E+03 0.  1.
</event>
<event>
 4    1  0.7613717E-004  0.6500000E+04  0.7818608E-02  0.7223770E-01
         52   -1    0    0    0    0  0.00000000000E+00  0.00000000000E+00  0.64930732323E+04  0.65000000000E+04  0.30000000000E+03 0.  1.
        -52   -1    0    0    0    0 -0.00000000000E+00 -0.00000000000E+00 -0.64930732323E+04  0.65000000000E+04  0.30000000000E+03 0.  1.
     100001    1    1    2    0    0  0.18320800635E+03 -0.46536724965E+02 -0.64955075945E+04  0.65000000000E+04  0.15050000000E+03 0.  1.
     100001    1    1    2    0    0 -0.18320800635E+03  0.46536724965E+02  0.64955075945E+04  0.65000000000E+04  0.15050000000E+03 0.  1.
</event>
<event>
 4    1  0.5640637E-004  0.6500000E+04  0.7818608E-02  0.7223770E-01
         52   -1    0    0    0    0  0.00000000000E+00  0.00000000000E+00  0.64930732323E+04  0.65000000000E+04  0.30000000000E+03 0.  1.
        -52   -1    0    0    0    0 -0.00000000000E+00 -0.00000000000E+00 -0.64930732323E+04  0.65000000000E+04  0.30000000000E+03 0. -1.
     100001    1    1    2    0    0  0.30737558800E+04 -0.42467462444E+03  0.57095556748E+04  0.65000000000E+04  0.15050000000E+03 0.  1.
     100001    1    1    2    0    0 -0.30737558800E+04  0.42467462444E+03 -0.57095556748E+04  0.65000000000E+04  0.15050000000E+03 0. -1.
</event>
<event>
 4    1  0.5640637E-004  0.6500000E+04  0.7818608E-02  0.7223770E-01
         52   -1    0    0    0    0  0.00000000000E+00  0.00000000000E+00  0.64930732323E+04  0.65000000000E+04  0.30000000000E+03 0. -1.
        -52   -1    0    0    0    0 -0.00000000000E+00 -0.00000000000E+00 -0.64930732323E+04  0.65000000000E+04  0.30000000000E+03 0.  1.
     100001    1    1    2    0    0 -0.14183118446E+04  0.26878884983E+04  0.57437789548E+04  0.65000000000E+04  0.15050000000E+03 0. -1.
     100001    1    1    2    0    0  0.14183118446E+04 -0.26878884983E+04 -0.57437789548E+04  0.65000000000E+04  0.15050000000E+03 0.  1.
</event>
<event>
 4    1  0.5640637E-004  0.6500000E+04  0.7818608E-02  0.7223770E-01
         52   -1    0    0    0    0  0.00000000000E+00  0.00000000000E+00  0.64930732323E+04  0.65000000000E+04  0.30000000000E+03 0.  1.
        -52   -1    0    0    0    0 -0.00000000000E+00 -0.00000000000E+00 -0.64930732323E+04  0.65000000000E+04  0.30000000000E+03 0. -1.
     100001    1    1    2    0    0  0.29266086888E+04  0.71516867613E+03 -0.57576770574E+04  0.65000000000E+04  0.15050000000E+03 0. -1.
     100001    1    1    2    0    0 -0.29266086888E+04 -0.71516867613E+03  0.57576770574E+04  0.65000000000E+04  0.15050000000E+03 0.  1.
</event>
<event>
 4    1  0.5640637E-004  0.6500000E+04  0.7818608E-02  0.7223770E-01
         52   -1    0    0    0    0  0.00000000000E+00  0.00000000000E+00  0.64930732323E+04  0.65000000000E+04  0.30000000000E+03 0. -1.
        -52   -1    0    0    0    0 -0.00000000000E+00 -0.00000000000E+00 -0.64930732323E+04  0.65000000000E+04  0.30000000000E+03 0.  1.
     100001    1    1    2    0    0  0.12181504752E+04  0.38007891860E+04  0.51281049846E+04  0.65000000000E+04  0.15050000000E+03 0. -1.
     100001    1    1    2    0    0 -0.12181504752E+04 -0.38007891860E+04 -0.51281049846E+04  0.65000000000E+04  0.15050000000E+03 0.  1.
</event>
<event>
 4    1  0.5640637E-004  0.6500000E+04  0.7818608E-02  0.7223770E-01
         52   -1    0    0    0    0  0.00000000000E+00  0.00000000000E+00  0.64930732323E+04  0.65000000000E+04  0.30000000000E+03 0.  1.
        -52   -1    0    0    0    0 -0.00000000000E+00 -0.00000000000E+00 -0.64930732323E+04  0.65000000000E+04  0.30000000000E+03 0. -1.
     100001    1    1    2    0    0  0.83161485631E+03 -0.75566121131E+03  0.64003705060E+04  0.65000000000E+04  0.15050000000E+03 0.  1.
     100001    1    1    2    0    0 -0.83161485631E+03  0.75566121131E+03 -0.64003705060E+04  0.65000000000E+04  0.15050000000E+03 0. -1.
</event>
<event>
 4    1  0.5640637E-004  0.6500000E+04  0.7818608E-02  0.7223770E-01
         52   -1    0    0    0    0  0.00000000000E+00  0.00000000000E+00  0.64930732323E+04  0.65000000000E+04  0.30000000000E+03 0.  1.
        -52   -1    0    0    0    0 -0.00000000000E+00 -0.00000000000E+00 -0.64930732323E+04  0.65000000000E+04  0.30000000000E+03 0. -1.
     100001    1    1    2    0    0 -0.13122618950E+04  0.58069539348E+04 -0.26047273309E+04  0.65000000000E+04  0.15050000000E+03 0.  1.
     100001    1    1    2    0    0  0.13122618950E+04 -0.58069539348E+04  0.26047273309E+04  0.65000000000E+04  0.15050000000E+03 0. -1.
</event>
<event>
 4    1  0.5640637E-004  0.6500000E+04  0.7818608E-02  0.7223770E-01
         52   -1    0    0    0    0  0.00000000000E+00  0.00000000000E+00  0.64930732323E+04  0.65000000000E+04  0.30000000000E+03 0.  1.
        -52   -1    0    0    0    0 -0.00000000000E+00 -0.00000000000E+00 -0.64930732323E+04  0.65000000000E+04  0.30000000000E+03 0. -1.
     100001    1    1    2    0    0 -0.31043439212E+04  0.14403388437E+03  0.57069828113E+04  0.65000000000E+04  0.15050000000E+03 0.  1.
     100001    1    1    2    0    0  0.31043439212E+04 -0.14403388437E+03 -0.57069828113E+04  0.65000000000E+04  0.15050000000E+03 0. -1.
</event>
<event>
 4    1  0.5640637E-004  0.6500000E+04  0.7818608E-02  0.7223770E-01
         52   -1    0    0    0    0  0.00000000000E+00  0.00000000000E+00  0.64930732323E+04  0.65000000000E+04  0.30000000000E+03 0.  1.
        -52   -1    0    0    0    0 -0.00000000000E+00 -0.00000000000E+00 -0.64930732323E+04  0.65000000000E+04  0.30000000000E+03 0. -1.
     100001    1    1    2    0    0 -0.32245052984E+04  0.51165500393E+04 -0.23771476660E+04  0.65000000000E+04  0.15050000000E+03 0.  1.
     100001    1    1    2    0    0  0.32245052984E+04 -0.51165500393E+04  0.23771476660E+04  0.65000000000E+04  0.15050000000E+03 0. -1.
</event>
<event>
 4    1  0.5640637E-004  0.6500000E+04  0.7818608E-02  0.7223770E-01
         52   -1    0    0    0    0  0.00000000000E+00  0.00000000000E+00  0.64930732323E+04  0.65000000000E+04  0.30000000000E+03 0.  1.
        -52   -1    0    0    0    0 -0.00000000000E+00 -0.00000000000E+00 -0.64930732323E+04  0.65000000000E+04  0.30000000000E+03 0. -1.
     100001    1    1    2    0    0  0.49350892605E+04  0.27669218190E+04 -0.31963084000E+04  0.65000000000E+04  0.15050000000E+03 0. -1.
     100001    1    1    2    0    0 -0.49350892605E+04 -0.27669218190E+04  0.31963084000E+04  0.65000000000E+04  0.15050000000E+03 0.  1.
</event>
<event>
 4    1  0.5640637E-004  0.6500000E+04  0.7818608E-02  0.7223770E-01
         52   -1    0    0    0    0  0.00000000000E+00  0.00000000000E+00  0.64930732323E+04  0.65000000000E+04  0.30000000000E+03 0. -1.
        -52   -1    0    0    0    0 -0.00000000000E+00 -0.00000000000E+00 -0.64930732323E+04  0.65000000000E+04  0.30000000000E+03 0.  1.
     100001    1    1    2    0    0  0.21823780065E+03  0.67548514626E+03  0.64593685318E+04  0.65000000000E+04  0.15050000000E+03 0. -1.
     100001    1    1    2    0    0 -0.21823780065E+03 -0.67548514626E+03 -0.64593685318E+04  0.65000000000E+04  0.15050000000E+03 0.  1.
</event>
<event>
 4    1  0.5640637E-004  0.6500000E+04  0.7818608E-02  0.7223770E-01
         52   -1    0    0    0    0  0.00000000000E+00  0.00000000000E+00  0.64930732323E+04  0.65000000000E+04  0.30000000000E+03 0. -1.
        -52   -1    0    0    0    0 -0.00000000000E+00 -0.00000000000E+00 -0.64930732323E+04  0.65000000000E+04  0.30000000000E+03 0.  1.
     100001    1    1    2    0    0  0.83939652385E+03  0.63021376346E+04 -0.13438096817E+04  0.65000000000E+04  0.15050000000E+03 0. -1.
     100001    1    1    2    0    0 -0.83939652385E+03 -0.63021376346E+04  0.13438096817E+04  0.65000000000E+04  0.15050000000E+03 0.  1.
</event>
<event>
 4    1  0.5640637E-004  0.6500000E+04  0.7818608E-02  0.7223770E-01
         52   -1    0    0    0    0  0.00000000000E+00  0.00000000000E+00  0.64930732323E+04  0.65000000000E+04  0.30000000000E+03 0.  1.
        -52   -1    0    0    0    0 -0.00000000000E+00 -0.00000000000E+00 -0.64930732323E+04  0.65000000000E+04  0.30000000000E+03 0. -1.
     100001    1    1    2    0    0  0.69245307044E+03  0.11545890846E+04  0.63572621891E+04  0.65000000000E+04  0.15050000000E+03 0.  1.
     100001    1    1    2    0    0 -0.69245307044E+03 -0.11545890846E+04 -0.63572621891E+04  0.65000000000E+04  0.15050000000E+03 0. -1.
</event>
<event>
 4    1  0.5640637E-004  0.6500000E+04  0.7818608E-02  0.7223770E-01
         52   -1    0    0    0    0  0.00000000000E+00  0.00000000000E+00  0.64930732323E+04  0.65000000000E+04  0.30000000000E+03 0.  1.
        -52   -1    0    0    0    0 -0.00000000000E+00 -0.00000000000E+00 -0.64930732323E+04  0.65000000000E+04  0.30000000000E+03 0. -1.
     100001    1    1    2    0    0  0.88994879473E+03 -0.20399430827E+04  0.61052414459E+04  0.65000000000E+04  0.15050000000E+03 0.  1.
     100001    1    1    2    0    0 -0.88994879473E+03  0.20399430827E+04 -0.61052414459E+04  0.65000000000E+04  0.15050000000E+03 0. -1.
</event>
<event>
 4    1  0.5640637E-004  0.6500000E+04  0.7818608E-02  0.7223770E-01
         52   -1    0    0    0    0  0.00000000000E+00  0.00000000000E+00  0.64930732323E+04  0.65000000000E+04  0.30000000000E+03 0. -1.
        -52   -1    0    0    0    0 -0.00000000000E+00 -0.00000000000E+00 -0.64930732323E+04  0.65000000000E+04  0.30000000000E+03 0. -1.
     100001    1    1    2    0    0  0.11900368404E+03 -0.13975450706E+03  0.64956644426E+04  0.65000000000E+04  0.15050000000E+03 0. -1.
     100001    1    1    2    0    0 -0.11900368404E+03  0.13975450706E+03 -0.64956644426E+04  0.65000000000E+04  0.15050000000E+03 0. -1.
</event>
<event>
 4    1  0.5640637E-004  0.6500000E+04  0.7818608E-02  0.7223770E-01
         52   -1    0    0    0    0  0.00000000000E+00  0.00000000000E+00  0.64930732323E+04  0.65000000000E+04  0.30000000000E+03 0.  1.
        -52   -1    0    0    0    0 -0.00000000000E+00 -0.00000000000E+00 -0.64930732323E+04  0.65000000000E+04  0.30000000000E+03 0. -1.
     100001    1    1    2    0    0  0.41637852346E+03  0.22792824321E+03 -0.64808971131E+04  0.65000000000E+04  0.15050000000E+03 0. -1.
     100001    1    1    2    0    0 -0.41637852346E+03 -0.22792824321E+03  0.64808971131E+04  0.65000000000E+04  0.15050000000E+03 0.  1.
</event>
<event>
 4    1  0.5640637E-004  0.6500000E+04  0.7818608E-02  0.7223770E-01
         52   -1    0    0    0    0  0.00000000000E+00  0.00000000000E+00  0.64930732323E+04  0.65000000000E+04  0.30000000000E+03 0.  1.
        -52   -1    0    0    0    0 -0.00000000000E+00 -0.00000000000E+00 -0.64930732323E+04  0.65000000000E+04  0.30000000000E+03 0. -1.
     100001    1    1    2    0    0  0.26420841692E+04 -0.32779797024E+04 -0.49499080863E+04  0.65000000000E+04  0.15050000000E+03 0.  1.
     100001    1    1    2    0    0 -0.26420841692E+04  0.32779797024E+04  0.49499080863E+04  0.65000000000E+04  0.15050000000E+03 0. -1.
</event>
<event>
 4    1  0.5640637E-004  0.6500000E+04  0.7818608E-02  0.7223770E-01
         52   -1    0    0    0    0  0.00000000000E+00  0.00000000000E+00  0.64930732323E+04  0.65000000000E+04  0.30000000000E+03 0. -1.
        -52   -1    0    0    0    0 -0.00000000000E+00 -0.00000000000E+00 -0.64930732323E+04  0.65000000000E+04  0.30000000000E+03 0.  1.
     100001    1    1    2    0    0 -0.73170354986E+03  0.18623953140E+03 -0.64542446887E+04  0.65000000000E+04  0.15050000000E+03 0.  1.
     100001    1    1    2    0    0  0.73170354986E+03 -0.18623953140E+03  0.64542446887E+04  0.65000000000E+04  0.15050000000E+03 0. -1.
</event>
<event>
 4    1  0.5640637E-004  0.6500000E+04  0.7818608E-02  0.7223770E-01
         52   -1    0    0    0    0  0.00000000000E+00  0.00000000000E+00  0.64930732323E+04  0.65000000000E+04  0.30000000000E+03 0.  1.
        -52   -1    0    0    0    0 -0.00000000000E+00 -0.00000000000E+00 -0.64930732323E+04  0.65000000000E+04  0.30000000000E+03 0. -1.
     100001    1    1    2    0    0  0.20673071015E+03  0.20795384947E+03 -0.64916382647E+04  0.65000000000E+04  0.15050000000E+03 0. -1.
     100001    1    1    2    0    0 -0.20673071015E+03 -0.20795384947E+03  0.64916382647E+04  0.65000000000E+04  0.15050000000E+03 0.  1.
</event>
<event>
 4    1  0.5640637E-004  0.6500000E+04  0.7818608E-02  0.7223770E-01
         52   -1    0    0    0    0  0.00000000000E+00  0.00000000000E+00  0.64930732323E+04  0.65000000000E+04  0.30000000000E+03 0.  1.
        -52   -1    0    0    0    0 -0.00000000000E+00 -0.00000000000E+00 -0.64930732323E+04  0.65000000000E+04  0.30000000000E+03 0.  1.
     100001    1    1    2    0    0 -0.11855220959E+03  0.41788622897E+03 -0.64837231760E+04  0.65000000000E+04  0.15050000000E+03 0.  1.
     100001    1    1    2    0    0  0.11855220959E+03 -0.41788622897E+03  0.64837231760E+04  0.65000000000E+04  0.15050000000E+03 0.  1.
</event>
<event>
 4    1  0.5640637E-004  0.6500000E+04  0.7818608E-02  0.7223770E-01
         52   -1    0    0    0    0  0.00000000000E+00  0.00000000000E+00  0.64930732323E+04  0.65000000000E+04  0.30000000000E+03 0.  1.
        -52   -1    0    0    0    0 -0.00000000000E+00 -0.00000000000E+00 -0.64930732323E+04  0.65000000000E+04  0.30000000000E+03 0.  1.
     100001    1    1    2    0    0 -0.43683900299E+03 -0.24660923273E+03  0.64788660522E+04  0.65000000000E+04  0.15050000000E+03 0.  1.
     100001    1    1    2    0    0  0.43683900299E+03  0.24660923273E+03 -0.64788660522E+04  0.65000000000E+04  0.15050000000E+03 0.  1.
</event>
<event>
 4    1  0.5640637E-004  0.6500000E+04  0.7818608E-02  0.7223770E-01
         52   -1    0    0    0    0  0.00000000000E+00  0.00000000000E+00  0.64930732323E+04  0.65000000000E+04  0.30000000000E+03 0.  1.
        -52   -1    0    0    0    0 -0.00000000000E+00 -0.00000000000E+00 -0.64930732323E+04  0.65000000000E+04  0.30000000000E+03 0. -1.
     100001    1    1    2    0    0  0.67464821456E+03  0.19895157939E+03 -0.64600787770E+04  0.65000000000E+04  0.15050000000E+03 0. -1.
     100001    1    1    2    0    0 -0.67464821456E+03 -0.19895157939E+03  0.64600787770E+04  0.65000000000E+04  0.15050000000E+03 0.  1.
</event>
<event>
 4    1  0.5640637E-004  0.6500000E+04  0.7818608E-02  0.7223770E-01
         52   -1    0    0    0    0  0.00000000000E+00  0.00000000000E+00  0.64930732323E+04  0.65000000000E+04  0.30000000000E+03 0. -1.
        -52   -1    0    0    0    0 -0.00000000000E+00 -0.00000000000E+00 -0.64930732323E+04  0.65000000000E+04  0.30000000000E+03 0.  1.
     100001    1    1    2    0    0  0.16884713779E+04 -0.68528659988E+03 -0.62375312770E+04  0.65000000000E+04  0.15050000000E+03 0.  1.
     100001    1    1    2    0    0 -0.16884713779E+04  0.68528659988E+03  0.62375312770E+04  0.65000000000E+04  0.15050000000E+03 0. -1.
</event>
<event>
 4    1  0.5640637E-004  0.6500000E+04  0.7818608E-02  0.7223770E-01
         52   -1    0    0    0    0  0.00000000000E+00  0.00000000000E+00  0.64930732323E+04  0.65000000000E+04  0.30000000000E+03 0.  1.
        -52   -1    0    0    0    0 -0.00000000000E+00 -0.00000000000E+00 -0.64930732323E+04  0.65000000000E+04  0.30000000000E+03 0.  1.
     100001    1    1    2    0    0  0.22047502540E+02  0.25272347304E+02 -0.64981708939E+04  0.65000000000E+04  0.15050000000E+03 0.  1.
     100001    1    1    2    0    0 -0.22047502540E+02 -0.25272347304E+02  0.64981708939E+04  0.65000000000E+04  0.15050000000E+03 0.  1.
</event>
<event>
 4    1  0.5640637E-004  0.6500000E+04  0.7818608E-02  0.7223770E-01
         52   -1    0    0    0    0  0.00000000000E+00  0.00000000000E+00  0.64930732323E+04  0.65000000000E+04  0.30000000000E+03 0.  1.
        -52   -1    0    0    0    0 -0.00000000000E+00 -0.00000000000E+00 -0.64930732323E+04  0.65000000000E+04  0.30000000000E+03 0. -1.
     100001    1    1    2    0    0  0.52107223369E+03 -0.28594955656E+03 -0.64710174106E+04  0.65000000000E+04  0.15050000000E+03 0. -1.
     100001    1    1    2    0    0 -0.52107223369E+03  0.28594955656E+03  0.64710174106E+04  0.65000000000E+04  0.15050000000E+03 0.  1.
</event>
<event>
 4    1  0.5640637E-004  0.6500000E+04  0.7818608E-02  0.7223770E-01
         52   -1    0    0    0    0  0.00000000000E+00  0.00000000000E+00  0.64930732323E+04  0.65000000000E+04  0.30000000000E+03 0. -1.
        -52   -1    0    0    0    0 -0.00000000000E+00 -0.00000000000E+00 -0.64930732323E+04  0.65000000000E+04  0.30000000000E+03 0. -1.
     100001    1    1    2    0    0  0.14823741533E+02 -0.34333227937E+03 -0.64891642723E+04  0.65000000000E+04  0.15050000000E+03 0. -1.
     100001    1    1    2    0    0 -0.14823741533E+02  0.34333227937E+03  0.64891642723E+04  0.65000000000E+04  0.15050000000E+03 0. -1.
</event>
<event>
 4    1  0.5640637E-004  0.6500000E+04  0.7818608E-02  0.7223770E-01
         52   -1    0    0    0    0  0.00000000000E+00  0.00000000000E+00  0.64930732323E+04  0.65000000000E+04  0.30000000000E+03 0. -1.
        -52   -1    0    0    0    0 -0.00000000000E+00 -0.00000000000E+00 -0.64930732323E+04  0.65000000000E+04  0.30000000000E+03 0.  1.
     100001    1    1    2    0    0 -0.13453194975E+04  0.19901423881E+04 -0.60379465446E+04  0.65000000000E+04  0.15050000000E+03 0.  1.
     100001    1    1    2    0    0  0.13453194975E+04 -0.19901423881E+04  0.60379465446E+04  0.65000000000E+04  0.15050000000E+03 0. -1.
</event>
<event>
 4    1  0.5640637E-004  0.6500000E+04  0.7818608E-02  0.7223770E-01
         52   -1    0    0    0    0  0.00000000000E+00  0.00000000000E+00  0.64930732323E+04  0.65000000000E+04  0.30000000000E+03 0.  1.
        -52   -1    0    0    0    0 -0.00000000000E+00 -0.00000000000E+00 -0.64930732323E+04  0.65000000000E+04  0.30000000000E+03 0. -1.
     100001    1    1    2    0    0  0.37769365162E+03 -0.34227508682E+04 -0.55108505469E+04  0.65000000000E+04  0.15050000000E+03 0. -1.
     100001    1    1    2    0    0 -0.37769365162E+03  0.34227508682E+04  0.55108505469E+04  0.65000000000E+04  0.15050000000E+03 0.  1.
</event>
<event>
 4    1  0.5640637E-004  0.6500000E+04  0.7818608E-02  0.7223770E-01
         52   -1    0    0    0    0  0.00000000000E+00  0.00000000000E+00  0.64930732323E+04  0.65000000000E+04  0.30000000000E+03 0. -1.
        -52   -1    0    0    0    0 -0.00000000000E+00 -0.00000000000E+00 -0.64930732323E+04  0.65000000000E+04  0.30000000000E+03 0.  1.
     100001    1    1    2    0    0 -0.37763624205E+03 -0.43033672761E+03  0.64729862444E+04  0.65000000000E+04  0.15050000000E+03 0. -1.
     100001    1    1    2    0    0  0.37763624205E+03  0.43033672761E+03 -0.64729862444E+04  0.65000000000E+04  0.15050000000E+03 0.  1.
</event>
<event>
 4    1  0.5640637E-004  0.6500000E+04  0.7818608E-02  0.7223770E-01
         52   -1    0    0    0    0  0.00000000000E+00  0.00000000000E+00  0.64930732323E+04  0.65000000000E+04  0.30000000000E+03 0.  1.
        -52   -1    0    0    0    0 -0.00000000000E+00 -0.00000000000E+00 -0.64930732323E+04  0.65000000000E+04  0.30000000000E+03 0. -1.
     100001    1    1    2    0    0  0.49707054722E+03  0.89470984145E+03  0.64171461664E+04  0.65000000000E+04  0.15050000000E+03 0.  1.
     100001    1    1    2    0    0 -0.49707054722E+03 -0.89470984145E+03 -0.64171461664E+04  0.65000000000E+04  0.15050000000E+03 0. -1.
</event>
<event>
 4    1  0.5640637E-004  0.6500000E+04  0.7818608E-02  0.7223770E-01
         52   -1    0    0    0    0  0.00000000000E+00  0.00000000000E+00  0.64930732323E+04  0.65000000000E+04  0.30000000000E+03 0. -1.
        -52   -1    0    0    0    0 -0.00000000000E+00 -0.00000000000E+00 -0.64930732323E+04  0.65000000000E+04  0.30000000000E+03 0.  1.
     100001    1    1    2    0    0  0.24783901591E+04 -0.21505325198E+04  0.56089341100E+04  0.65000000000E+04  0.15050000000E+03 0. -1.
     100001    1    1    2    0    0 -0.24783901591E+04  0.21505325198E+04 -0.56089341100E+04  0.65000000000E+04  0.15050000000E+03 0.  1.
</event>
<event>
 4    1  0.5640637E-004  0.6500000E+04  0.7818608E-02  0.7223770E-01
         52   -1    0    0    0    0  0.00000000000E+00  0.00000000000E+00  0.64930732323E+04  0.65000000000E+04  0.30000000000E+03 0.  1.
        -52   -1    0    0    0    0 -0.00000000000E+00 -0.00000000000E+00 -0.64930732323E+04  0.65000000000E+04  0.30000000000E+03 0. -1.
     100001    1    1    2    0    0  0.12067917855E+04  0.13525823530E+04  0.62403144404E+04  0.65000000000E+04  0.15050000000E+03 0.  1.
     100001    1    1    2    0    0 -0.12067917855E+04 -0.13525823530E+04 -0.62403144404E+04  0.65000000000E+04  0.15050000000E+03 0. -1.
</event>
<event>
 4    1  0.5640637E-004  0.6500000E+04  0.7818608E-02  0.7223770E-01
         52   -1    0    0    0    0  0.00000000000E+00  0.00000000000E+00  0.64930732323E+04  0.65000000000E+04  0.30000000000E+03 0.  1.
        -52   -1    0    0    0    0 -0.00000000000E+00 -0.00000000000E+00 -0.64930732323E+04  0.65000000000E+04  0.30000000000E+03 0. -1.
     100001    1    1    2    0    0 -0.61340482447E+04  0.16587330635E+04  0.13599288606E+04  0.65000000000E+04  0.15050000000E+03 0.  1.
     100001    1    1    2    0    0  0.61340482447E+04 -0.16587330635E+04 -0.13599288606E+04  0.65000000000E+04  0.15050000000E+03 0. -1.
</event>
<event>
 4    1  0.5640637E-004  0.6500000E+04  0.7818608E-02  0.7223770E-01
         52   -1    0    0    0    0  0.00000000000E+00  0.00000000000E+00  0.64930732323E+04  0.65000000000E+04  0.30000000000E+03 0. -1.
        -52   -1    0    0    0    0 -0.00000000000E+00 -0.00000000000E+00 -0.64930732323E+04  0.65000000000E+04  0.30000000000E+03 0.  1.
     100001    1    1    2    0    0  0.29214481237E+03  0.17118391239E+04 -0.62619172761E+04  0.65000000000E+04  0.15050000000E+03 0.  1.
     100001    1    1    2    0    0 -0.29214481237E+03 -0.17118391239E+04  0.62619172761E+04  0.65000000000E+04  0.15050000000E+03 0. -1.
</event>
<event>
 4    1  0.5640637E-004  0.6500000E+04  0.7818608E-02  0.7223770E-01
         52   -1    0    0    0    0  0.00000000000E+00  0.00000000000E+00  0.64930732323E+04  0.65000000000E+04  0.30000000000E+03 0.  1.
        -52   -1    0    0    0    0 -0.00000000000E+00 -0.00000000000E+00 -0.64930732323E+04  0.65000000000E+04  0.30000000000E+03 0. -1.
     100001    1    1    2    0    0 -0.14563833856E+04 -0.12501270780E+04 -0.62083395101E+04  0.65000000000E+04  0.15050000000E+03 0. -1.
     100001    1    1    2    0    0  0.14563833856E+04  0.12501270780E+04  0.62083395101E+04  0.65000000000E+04  0.15050000000E+03 0.  1.
</event>
<event>
 4    1  0.5640637E-004  0.6500000E+04  0.7818608E-02  0.7223770E-01
         52   -1    0    0    0    0  0.00000000000E+00  0.00000000000E+00  0.64930732323E+04  0.65000000000E+04  0.30000000000E+03 0. -1.
        -52   -1    0    0    0    0 -0.00000000000E+00 -0.00000000000E+00 -0.64930732323E+04  0.65000000000E+04  0.30000000000E+03 0.  1.
     100001    1    1    2    0    0 -0.14161163113E+04  0.57690365612E+04 -0.26344224221E+04  0.65000000000E+04  0.15050000000E+03 0.  1.
     100001    1    1    2    0    0  0.14161163113E+04 -0.57690365612E+04  0.26344224221E+04  0.65000000000E+04  0.15050000000E+03 0. -1.
</event>
<event>
 4    1  0.8098632E-004  0.6500000E+04  0.7818608E-02  0.7223770E-01
         52   -1    0    0    0    0  0.00000000000E+00  0.00000000000E+00  0.64930732323E+04  0.65000000000E+04  0.30000000000E+03 0.  1.
        -52   -1    0    0    0    0 -0.00000000000E+00 -0.00000000000E+00 -0.64930732323E+04  0.65000000000E+04  0.30000000000E+03 0.  1.
     100001    1    1    2    0    0 -0.97535089853E+02  0.13002115748E+03 -0.64962243769E+04  0.65000000000E+04  0.15050000000E+03 0.  1.
     100001    1    1    2    0    0  0.97535089853E+02 -0.13002115748E+03  0.64962243769E+04  0.65000000000E+04  0.15050000000E+03 0.  1.
</event>
<event>
 4    1  0.5640637E-004  0.6500000E+04  0.7818608E-02  0.7223770E-01
         52   -1    0    0    0    0  0.00000000000E+00  0.00000000000E+00  0.64930732323E+04  0.65000000000E+04  0.30000000000E+03 0. -1.
        -52   -1    0    0    0    0 -0.00000000000E+00 -0.00000000000E+00 -0.64930732323E+04  0.65000000000E+04  0.30000000000E+03 0. -1.
     100001    1    1    2    0    0 -0.46277006674E+03  0.41106592520E+03  0.64687107232E+04  0.65000000000E+04  0.15050000000E+03 0. -1.
     100001    1    1    2    0    0  0.46277006674E+03 -0.41106592520E+03 -0.64687107232E+04  0.65000000000E+04  0.15050000000E+03 0. -1.
</event>
<event>
 4    1  0.5640637E-004  0.6500000E+04  0.7818608E-02  0.7223770E-01
         52   -1    0    0    0    0  0.00000000000E+00  0.00000000000E+00  0.64930732323E+04  0.65000000000E+04  0.30000000000E+03 0. -1.
        -52   -1    0    0    0    0 -0.00000000000E+00 -0.00000000000E+00 -0.64930732323E+04  0.65000000000E+04  0.30000000000E+03 0.  1.
     100001    1    1    2    0    0  0.56735860633E+03  0.88344796836E+03  0.64128756147E+04  0.65000000000E+04  0.15050000000E+03 0. -1.
     100001    1    1    2    0    0 -0.56735860633E+03 -0.88344796836E+03 -0.64128756147E+04  0.65000000000E+04  0.15050000000E+03 0.  1.
</event>
<event>
 4    1  0.5640637E-004  0.6500000E+04  0.7818608E-02  0.7223770E-01
         52   -1    0    0    0    0  0.00000000000E+00  0.00000000000E+00  0.64930732323E+04  0.65000000000E+04  0.30000000000E+03 0.  1.
        -52   -1    0    0    0    0 -0.00000000000E+00 -0.00000000000E+00 -0.64930732323E+04  0.65000000000E+04  0.30000000000E+03 0. -1.
     100001    1    1    2    0    0  0.65558777057E+03 -0.83012138219E+03  0.64115873944E+04  0.65000000000E+04  0.15050000000E+03 0.  1.
     100001    1    1    2    0    0 -0.65558777057E+03  0.83012138219E+03 -0.64115873944E+04  0.65000000000E+04  0.15050000000E+03 0. -1.
</event>
<event>
 4    1  0.5640637E-004  0.6500000E+04  0.7818608E-02  0.7223770E-01
         52   -1    0    0    0    0  0.00000000000E+00  0.00000000000E+00  0.64930732323E+04  0.65000000000E+04  0.30000000000E+03 0. -1.
        -52   -1    0    0    0    0 -0.00000000000E+00 -0.00000000000E+00 -0.64930732323E+04  0.65000000000E+04  0.30000000000E+03 0. -1.
     100001    1    1    2    0    0  0.68679753680E+02  0.11402454771E+03  0.64968939690E+04  0.65000000000E+04  0.15050000000E+03 0. -1.
     100001    1    1    2    0    0 -0.68679753680E+02 -0.11402454771E+03 -0.64968939690E+04  0.65000000000E+04  0.15050000000E+03 0. -1.
</event>
<event>
 4    1  0.5640637E-004  0.6500000E+04  0.7818608E-02  0.7223770E-01
         52   -1    0    0    0    0  0.00000000000E+00  0.00000000000E+00  0.64930732323E+04  0.65000000000E+04  0.30000000000E+03 0. -1.
        -52   -1    0    0    0    0 -0.00000000000E+00 -0.00000000000E+00 -0.64930732323E+04  0.65000000000E+04  0.30000000000E+03 0.  1.
     100001    1    1    2    0    0  0.19341446421E+04 -0.53213718048E+04  0.31889553726E+04  0.65000000000E+04  0.15050000000E+03 0. -1.
     100001    1    1    2    0    0 -0.19341446421E+04  0.53213718048E+04 -0.31889553726E+04  0.65000000000E+04  0.15050000000E+03 0.  1.
</event>
<event>
 4    1  0.5640637E-004  0.6500000E+04  0.7818608E-02  0.7223770E-01
         52   -1    0    0    0    0  0.00000000000E+00  0.00000000000E+00  0.64930732323E+04  0.65000000000E+04  0.30000000000E+03 0.  1.
        -52   -1    0    0    0    0 -0.00000000000E+00 -0.00000000000E+00 -0.64930732323E+04  0.65000000000E+04  0.30000000000E+03 0. -1.
     100001    1    1    2    0    0 -0.10160849091E+04 -0.12272133117E+04 -0.62999102133E+04  0.65000000000E+04  0.15050000000E+03 0. -1.
     100001    1    1    2    0    0  0.10160849091E+04  0.12272133117E+04  0.62999102133E+04  0.65000000000E+04  0.15050000000E+03 0.  1.
</event>
<event>
 4    1  0.5640637E-004  0.6500000E+04  0.7818608E-02  0.7223770E-01
         52   -1    0    0    0    0  0.00000000000E+00  0.00000000000E+00  0.64930732323E+04  0.65000000000E+04  0.30000000000E+03 0.  1.
        -52   -1    0    0    0    0 -0.00000000000E+00 -0.00000000000E+00 -0.64930732323E+04  0.65000000000E+04  0.30000000000E+03 0.  1.
     100001    1    1    2    0    0 -0.13520435862E+04 -0.19897010962E+03 -0.63529315112E+04  0.65000000000E+04  0.15050000000E+03 0.  1.
     100001    1    1    2    0    0  0.13520435862E+04  0.19897010962E+03  0.63529315112E+04  0.65000000000E+04  0.15050000000E+03 0.  1.
</event>
<event>
 4    1  0.5640637E-004  0.6500000E+04  0.7818608E-02  0.7223770E-01
         52   -1    0    0    0    0  0.00000000000E+00  0.00000000000E+00  0.64930732323E+04  0.65000000000E+04  0.30000000000E+03 0. -1.
        -52   -1    0    0    0    0 -0.00000000000E+00 -0.00000000000E+00 -0.64930732323E+04  0.65000000000E+04  0.30000000000E+03 0.  1.
     100001    1    1    2    0    0 -0.19987362729E+04  0.23064437291E+04 -0.57369609015E+04  0.65000000000E+04  0.15050000000E+03 0.  1.
     100001    1    1    2    0    0  0.19987362729E+04 -0.23064437291E+04  0.57369609015E+04  0.65000000000E+04  0.15050000000E+03 0. -1.
</event>
<event>
 4    1  0.5640637E-004  0.6500000E+04  0.7818608E-02  0.7223770E-01
         52   -1    0    0    0    0  0.00000000000E+00  0.00000000000E+00  0.64930732323E+04  0.65000000000E+04  0.30000000000E+03 0. -1.
        -52   -1    0    0    0    0 -0.00000000000E+00 -0.00000000000E+00 -0.64930732323E+04  0.65000000000E+04  0.30000000000E+03 0. -1.
     100001    1    1    2    0    0 -0.18705125669E+04 -0.63899789065E+03  0.61903323160E+04  0.65000000000E+04  0.15050000000E+03 0. -1.
     100001    1    1    2    0    0  0.18705125669E+04  0.63899789065E+03 -0.61903323160E+04  0.65000000000E+04  0.15050000000E+03 0. -1.
</event>
<event>
 4    1  0.5640637E-004  0.6500000E+04  0.7818608E-02  0.7223770E-01
         52   -1    0    0    0    0  0.00000000000E+00  0.00000000000E+00  0.64930732323E+04  0.65000000000E+04  0.30000000000E+03 0.  1.
        -52   -1    0    0    0    0 -0.00000000000E+00 -0.00000000000E+00 -0.64930732323E+04  0.65000000000E+04  0.30000000000E+03 0.  1.
     100001    1    1    2    0    0  0.66106794901E+03 -0.12604500947E+03  0.64633158342E+04  0.65000000000E+04  0.15050000000E+03 0.  1.
     100001    1    1    2    0    0 -0.66106794901E+03  0.12604500947E+03 -0.64633158342E+04  0.65000000000E+04  0.15050000000E+03 0.  1.
</event>
<event>
 4    1  0.5640637E-004  0.6500000E+04  0.7818608E-02  0.7223770E-01
         52   -1    0    0    0    0  0.00000000000E+00  0.00000000000E+00  0.64930732323E+04  0.65000000000E+04  0.30000000000E+03 0.  1.
        -52   -1    0    0    0    0 -0.00000000000E+00 -0.00000000000E+00 -0.64930732323E+04  0.65000000000E+04  0.30000000000E+03 0. -1.
     100001    1    1    2    0    0 -0.52738466152E+04  0.31949016879E+04  0.20509741183E+04  0.65000000000E+04  0.15050000000E+03 0.  1.
     100001    1    1    2    0    0  0.52738466152E+04 -0.31949016879E+04 -0.20509741183E+04  0.65000000000E+04  0.15050000000E+03 0. -1.
</event>
<event>
 4    1  0.5640637E-004  0.6500000E+04  0.7818608E-02  0.7223770E-01
         52   -1    0    0    0    0  0.00000000000E+00  0.00000000000E+00  0.64930732323E+04  0.65000000000E+04  0.30000000000E+03 0. -1.
        -52   -1    0    0    0    0 -0.00000000000E+00 -0.00000000000E+00 -0.64930732323E+04  0.65000000000E+04  0.30000000000E+03 0.  1.
     100001    1    1    2    0    0  0.17547621851E+04  0.28242136505E+04  0.55831869644E+04  0.65000000000E+04  0.15050000000E+03 0. -1.
     100001    1    1    2    0    0 -0.17547621851E+04 -0.28242136505E+04 -0.55831869644E+04  0.65000000000E+04  0.15050000000E+03 0.  1.
</event>
<event>
 4    1  0.5640637E-004  0.6500000E+04  0.7818608E-02  0.7223770E-01
         52   -1    0    0    0    0  0.00000000000E+00  0.00000000000E+00  0.64930732323E+04  0.65000000000E+04  0.30000000000E+03 0.  1.
        -52   -1    0    0    0    0 -0.00000000000E+00 -0.00000000000E+00 -0.64930732323E+04  0.65000000000E+04  0.30000000000E+03 0. -1.
     100001    1    1    2    0    0 -0.55339265112E+02  0.16238723903E+04 -0.62918459752E+04  0.65000000000E+04  0.15050000000E+03 0. -1.
     100001    1    1    2    0    0  0.55339265112E+02 -0.16238723903E+04  0.62918459752E+04  0.65000000000E+04  0.15050000000E+03 0.  1.
</event>
<event>
 4    1  0.5640637E-004  0.6500000E+04  0.7818608E-02  0.7223770E-01
         52   -1    0    0    0    0  0.00000000000E+00  0.00000000000E+00  0.64930732323E+04  0.65000000000E+04  0.30000000000E+03 0.  1.
        -52   -1    0    0    0    0 -0.00000000000E+00 -0.00000000000E+00 -0.64930732323E+04  0.65000000000E+04  0.30000000000E+03 0.  1.
     100001    1    1    2    0    0 -0.14184961702E+03 -0.20642737224E+03 -0.64934286918E+04  0.65000000000E+04  0.15050000000E+03 0.  1.
     100001    1    1    2    0    0  0.14184961702E+03  0.20642737224E+03  0.64934286918E+04  0.65000000000E+04  0.15050000000E+03 0.  1.
</event>
<event>
 4    1  0.5640637E-004  0.6500000E+04  0.7818608E-02  0.7223770E-01
         52   -1    0    0    0    0  0.00000000000E+00  0.00000000000E+00  0.64930732323E+04  0.65000000000E+04  0.30000000000E+03 0. -1.
        -52   -1    0    0    0    0 -0.00000000000E+00 -0.00000000000E+00 -0.64930732323E+04  0.65000000000E+04  0.30000000000E+03 0.  1.
     100001    1    1    2    0    0  0.48175107686E+03 -0.47814261862E+03 -0.64627119142E+04  0.65000000000E+04  0.15050000000E+03 0.  1.
     100001    1    1    2    0    0 -0.48175107686E+03  0.47814261862E+03  0.64627119142E+04  0.65000000000E+04  0.15050000000E+03 0. -1.
</event>
<event>
 4    1  0.5640637E-004  0.6500000E+04  0.7818608E-02  0.7223770E-01
         52   -1    0    0    0    0  0.00000000000E+00  0.00000000000E+00  0.64930732323E+04  0.65000000000E+04  0.30000000000E+03 0.  1.
        -52   -1    0    0    0    0 -0.00000000000E+00 -0.00000000000E+00 -0.64930732323E+04  0.65000000000E+04  0.30000000000E+03 0.  1.
     100001    1    1    2    0    0  0.13250028353E+03  0.28890523734E+03  0.64904797349E+04  0.65000000000E+04  0.15050000000E+03 0.  1.
     100001    1    1    2    0    0 -0.13250028353E+03 -0.28890523734E+03 -0.64904797349E+04  0.65000000000E+04  0.15050000000E+03 0.  1.
</event>
<event>
 4    1  0.5640637E-004  0.6500000E+04  0.7818608E-02  0.7223770E-01
         52   -1    0    0    0    0  0.00000000000E+00  0.00000000000E+00  0.64930732323E+04  0.65000000000E+04  0.30000000000E+03 0.  1.
        -52   -1    0    0    0    0 -0.00000000000E+00 -0.00000000000E+00 -0.64930732323E+04  0.65000000000E+04  0.30000000000E+03 0. -1.
     100001    1    1    2    0    0 -0.54578626608E+04 -0.21112347183E+04 -0.28252031590E+04  0.65000000000E+04  0.15050000000E+03 0. -1.
     100001    1    1    2    0    0  0.54578626608E+04  0.21112347183E+04  0.28252031590E+04  0.65000000000E+04  0.15050000000E+03 0.  1.
</event>
<event>
 4    1  0.5640637E-004  0.6500000E+04  0.7818608E-02  0.7223770E-01
         52   -1    0    0    0    0  0.00000000000E+00  0.00000000000E+00  0.64930732323E+04  0.65000000000E+04  0.30000000000E+03 0. -1.
        -52   -1    0    0    0    0 -0.00000000000E+00 -0.00000000000E+00 -0.64930732323E+04  0.65000000000E+04  0.30000000000E+03 0. -1.
     100001    1    1    2    0    0 -0.22366422220E+03  0.34618975049E+03 -0.64851736077E+04  0.65000000000E+04  0.15050000000E+03 0. -1.
     100001    1    1    2    0    0  0.22366422220E+03 -0.34618975049E+03  0.64851736077E+04  0.65000000000E+04  0.15050000000E+03 0. -1.
</event>
<event>
 4    1  0.5640637E-004  0.6500000E+04  0.7818608E-02  0.7223770E-01
         52   -1    0    0    0    0  0.00000000000E+00  0.00000000000E+00  0.64930732323E+04  0.65000000000E+04  0.30000000000E+03 0.  1.
        -52   -1    0    0    0    0 -0.00000000000E+00 -0.00000000000E+00 -0.64930732323E+04  0.65000000000E+04  0.30000000000E+03 0.  1.
     100001    1    1    2    0    0  0.44550428762E+03 -0.51355538660E+02  0.64827647102E+04  0.65000000000E+04  0.15050000000E+03 0.  1.
     100001    1    1    2    0    0 -0.44550428762E+03  0.51355538660E+02 -0.64827647102E+04  0.65000000000E+04  0.15050000000E+03 0.  1.
</event>
<event>
 4    1  0.5640637E-004  0.6500000E+04  0.7818608E-02  0.7223770E-01
         52   -1    0    0    0    0  0.00000000000E+00  0.00000000000E+00  0.64930732323E+04  0.65000000000E+04  0.30000000000E+03 0. -1.
        -52   -1    0    0    0    0 -0.00000000000E+00 -0.00000000000E+00 -0.64930732323E+04  0.65000000000E+04  0.30000000000E+03 0.  1.
     100001    1    1    2    0    0 -0.21472730507E+04 -0.76745898713E+03 -0.60850287509E+04  0.65000000000E+04  0.15050000000E+03 0.  1.
     100001    1    1    2    0    0  0.21472730507E+04  0.76745898713E+03  0.60850287509E+04  0.65000000000E+04  0.15050000000E+03 0. -1.
</event>
<event>
 4    1  0.5640637E-004  0.6500000E+04  0.7818608E-02  0.7223770E-01
         52   -1    0    0    0    0  0.00000000000E+00  0.00000000000E+00  0.64930732323E+04  0.65000000000E+04  0.30000000000E+03 0. -1.
        -52   -1    0    0    0    0 -0.00000000000E+00 -0.00000000000E+00 -0.64930732323E+04  0.65000000000E+04  0.30000000000E+03 0.  1.
     100001    1    1    2    0    0 -0.37802741200E+04 -0.52279698948E+04  0.77795122434E+03  0.65000000000E+04  0.15050000000E+03 0. -1.
     100001    1    1    2    0    0  0.37802741200E+04  0.52279698948E+04 -0.77795122434E+03  0.65000000000E+04  0.15050000000E+03 0.  1.
</event>
<event>
 4    1  0.5640637E-004  0.6500000E+04  0.7818608E-02  0.7223770E-01
         52   -1    0    0    0    0  0.00000000000E+00  0.00000000000E+00  0.64930732323E+04  0.65000000000E+04  0.30000000000E+03 0.  1.
        -52   -1    0    0    0    0 -0.00000000000E+00 -0.00000000000E+00 -0.64930732323E+04  0.65000000000E+04  0.30000000000E+03 0.  1.
     100001    1    1    2    0    0  0.38005630478E+03 -0.19881739496E+03 -0.64840865663E+04  0.65000000000E+04  0.15050000000E+03 0.  1.
     100001    1    1    2    0    0 -0.38005630478E+03  0.19881739496E+03  0.64840865663E+04  0.65000000000E+04  0.15050000000E+03 0.  1.
</event>
<event>
 4    1  0.5640637E-004  0.6500000E+04  0.7818608E-02  0.7223770E-01
         52   -1    0    0    0    0  0.00000000000E+00  0.00000000000E+00  0.64930732323E+04  0.65000000000E+04  0.30000000000E+03 0.  1.
        -52   -1    0    0    0    0 -0.00000000000E+00 -0.00000000000E+00 -0.64930732323E+04  0.65000000000E+04  0.30000000000E+03 0. -1.
     100001    1    1    2    0    0  0.32335092862E+03 -0.63493579956E+04  0.13447851021E+04  0.65000000000E+04  0.15050000000E+03 0. -1.
     100001    1    1    2    0    0 -0.32335092862E+03  0.63493579956E+04 -0.13447851021E+04  0.65000000000E+04  0.15050000000E+03 0.  1.
</event>
<event>
 4    1  0.5640637E-004  0.6500000E+04  0.7818608E-02  0.7223770E-01
         52   -1    0    0    0    0  0.00000000000E+00  0.00000000000E+00  0.64930732323E+04  0.65000000000E+04  0.30000000000E+03 0. -1.
        -52   -1    0    0    0    0 -0.00000000000E+00 -0.00000000000E+00 -0.64930732323E+04  0.65000000000E+04  0.30000000000E+03 0.  1.
     100001    1    1    2    0    0  0.54755932776E+03  0.95015943050E+03 -0.64050546906E+04  0.65000000000E+04  0.15050000000E+03 0.  1.
     100001    1    1    2    0    0 -0.54755932776E+03 -0.95015943050E+03  0.64050546906E+04  0.65000000000E+04  0.15050000000E+03 0. -1.
</event>
<event>
 4    1  0.5640637E-004  0.6500000E+04  0.7818608E-02  0.7223770E-01
         52   -1    0    0    0    0  0.00000000000E+00  0.00000000000E+00  0.64930732323E+04  0.65000000000E+04  0.30000000000E+03 0.  1.
        -52   -1    0    0    0    0 -0.00000000000E+00 -0.00000000000E+00 -0.64930732323E+04  0.65000000000E+04  0.30000000000E+03 0. -1.
     100001    1    1    2    0    0  0.37931338956E+04 -0.17278931610E+04 -0.49853656058E+04  0.65000000000E+04  0.15050000000E+03 0. -1.
     100001    1    1    2    0    0 -0.37931338956E+04  0.17278931610E+04  0.49853656058E+04  0.65000000000E+04  0.15050000000E+03 0.  1.
</event>
<event>
 4    1  0.5640637E-004  0.6500000E+04  0.7818608E-02  0.7223770E-01
         52   -1    0    0    0    0  0.00000000000E+00  0.00000000000E+00  0.64930732323E+04  0.65000000000E+04  0.30000000000E+03 0.  1.
        -52   -1    0    0    0    0 -0.00000000000E+00 -0.00000000000E+00 -0.64930732323E+04  0.65000000000E+04  0.30000000000E+03 0. -1.
     100001    1    1    2    0    0 -0.70772229103E+03 -0.15387394886E+04 -0.62736560071E+04  0.65000000000E+04  0.15050000000E+03 0. -1.
     100001    1    1    2    0    0  0.70772229103E+03  0.15387394886E+04  0.62736560071E+04  0.65000000000E+04  0.15050000000E+03 0.  1.
</event>
<event>
 4    1  0.5640637E-004  0.6500000E+04  0.7818608E-02  0.7223770E-01
         52   -1    0    0    0    0  0.00000000000E+00  0.00000000000E+00  0.64930732323E+04  0.65000000000E+04  0.30000000000E+03 0. -1.
        -52   -1    0    0    0    0 -0.00000000000E+00 -0.00000000000E+00 -0.64930732323E+04  0.65000000000E+04  0.30000000000E+03 0.  1.
     100001    1    1    2    0    0 -0.52220467354E+03 -0.53763008842E+03 -0.64548900778E+04  0.65000000000E+04  0.15050000000E+03 0.  1.
     100001    1    1    2    0    0  0.52220467354E+03  0.53763008842E+03  0.64548900778E+04  0.65000000000E+04  0.15050000000E+03 0. -1.
</event>
<event>
 4    1  0.5640637E-004  0.6500000E+04  0.7818608E-02  0.7223770E-01
         52   -1    0    0    0    0  0.00000000000E+00  0.00000000000E+00  0.64930732323E+04  0.65000000000E+04  0.30000000000E+03 0.  1.
        -52   -1    0    0    0    0 -0.00000000000E+00 -0.00000000000E+00 -0.64930732323E+04  0.65000000000E+04  0.30000000000E+03 0. -1.
     100001    1    1    2    0    0 -0.18715330305E+04  0.15407878591E+04  0.60291530615E+04  0.65000000000E+04  0.15050000000E+03 0.  1.
     100001    1    1    2    0    0  0.18715330305E+04 -0.15407878591E+04 -0.60291530615E+04  0.65000000000E+04  0.15050000000E+03 0. -1.
</event>
<event>
 4    1  0.5640637E-004  0.6500000E+04  0.7818608E-02  0.7223770E-01
         52   -1    0    0    0    0  0.00000000000E+00  0.00000000000E+00  0.64930732323E+04  0.65000000000E+04  0.30000000000E+03 0. -1.
        -52   -1    0    0    0    0 -0.00000000000E+00 -0.00000000000E+00 -0.64930732323E+04  0.65000000000E+04  0.30000000000E+03 0.  1.
     100001    1    1    2    0    0  0.45432906717E+04 -0.11874873045E+04  0.44917405896E+04  0.65000000000E+04  0.15050000000E+03 0. -1.
     100001    1    1    2    0    0 -0.45432906717E+04  0.11874873045E+04 -0.44917405896E+04  0.65000000000E+04  0.15050000000E+03 0.  1.
</event>
<event>
 4    1  0.5640637E-004  0.6500000E+04  0.7818608E-02  0.7223770E-01
         52   -1    0    0    0    0  0.00000000000E+00  0.00000000000E+00  0.64930732323E+04  0.65000000000E+04  0.30000000000E+03 0. -1.
        -52   -1    0    0    0    0 -0.00000000000E+00 -0.00000000000E+00 -0.64930732323E+04  0.65000000000E+04  0.30000000000E+03 0.  1.
     100001    1    1    2    0    0  0.38368645259E+04 -0.16888445349E+03 -0.52418792815E+04  0.65000000000E+04  0.15050000000E+03 0.  1.
     100001    1    1    2    0    0 -0.38368645259E+04  0.16888445349E+03  0.52418792815E+04  0.65000000000E+04  0.15050000000E+03 0. -1.
</event>
<event>
 4    1  0.5640637E-004  0.6500000E+04  0.7818608E-02  0.7223770E-01
         52   -1    0    0    0    0  0.00000000000E+00  0.00000000000E+00  0.64930732323E+04  0.65000000000E+04  0.30000000000E+03 0. -1.
        -52   -1    0    0    0    0 -0.00000000000E+00 -0.00000000000E+00 -0.64930732323E+04  0.65000000000E+04  0.30000000000E+03 0.  1.
     100001    1    1    2    0    0  0.47022625915E+04 -0.32617815228E+04  0.30784505141E+04  0.65000000000E+04  0.15050000000E+03 0. -1.
     100001    1    1    2    0    0 -0.47022625915E+04  0.32617815228E+04 -0.30784505141E+04  0.65000000000E+04  0.15050000000E+03 0.  1.
</event>
<event>
 4    1  0.5640637E-004  0.6500000E+04  0.7818608E-02  0.7223770E-01
         52   -1    0    0    0    0  0.00000000000E+00  0.00000000000E+00  0.64930732323E+04  0.65000000000E+04  0.30000000000E+03 0. -1.
        -52   -1    0    0    0    0 -0.00000000000E+00 -0.00000000000E+00 -0.64930732323E+04  0.65000000000E+04  0.30000000000E+03 0.  1.
     100001    1    1    2    0    0 -0.92672440284E+03 -0.84249598942E+03 -0.63764200096E+04  0.65000000000E+04  0.15050000000E+03 0.  1.
     100001    1    1    2    0    0  0.92672440284E+03  0.84249598942E+03  0.63764200096E+04  0.65000000000E+04  0.15050000000E+03 0. -1.
</event>
<event>
 4    1  0.5640637E-004  0.6500000E+04  0.7818608E-02  0.7223770E-01
         52   -1    0    0    0    0  0.00000000000E+00  0.00000000000E+00  0.64930732323E+04  0.65000000000E+04  0.30000000000E+03 0. -1.
        -52   -1    0    0    0    0 -0.00000000000E+00 -0.00000000000E+00 -0.64930732323E+04  0.65000000000E+04  0.30000000000E+03 0.  1.
     100001    1    1    2    0    0 -0.83841972589E+03 -0.18774282165E+04  0.61643868637E+04  0.65000000000E+04  0.15050000000E+03 0. -1.
     100001    1    1    2    0    0  0.83841972589E+03  0.18774282165E+04 -0.61643868637E+04  0.65000000000E+04  0.15050000000E+03 0.  1.
</event>
<event>
 4    1  0.5640637E-004  0.6500000E+04  0.7818608E-02  0.7223770E-01
         52   -1    0    0    0    0  0.00000000000E+00  0.00000000000E+00  0.64930732323E+04  0.65000000000E+04  0.30000000000E+03 0.  1.
        -52   -1    0    0    0    0 -0.00000000000E+00 -0.00000000000E+00 -0.64930732323E+04  0.65000000000E+04  0.30000000000E+03 0. -1.
     100001    1    1    2    0    0  0.38488937226E+04  0.45422583674E+04 -0.26040844429E+04  0.65000000000E+04  0.15050000000E+03 0. -1.
     100001    1    1    2    0    0 -0.38488937226E+04 -0.45422583674E+04  0.26040844429E+04  0.65000000000E+04  0.15050000000E+03 0.  1.
</event>
<event>
 4    1  0.5640637E-004  0.6500000E+04  0.7818608E-02  0.7223770E-01
         52   -1    0    0    0    0  0.00000000000E+00  0.00000000000E+00  0.64930732323E+04  0.65000000000E+04  0.30000000000E+03 0.  1.
        -52   -1    0    0    0    0 -0.00000000000E+00 -0.00000000000E+00 -0.64930732323E+04  0.65000000000E+04  0.30000000000E+03 0. -1.
     100001    1    1    2    0    0 -0.11332942230E+03 -0.47421943326E+03 -0.64799399782E+04  0.65000000000E+04  0.15050000000E+03 0. -1.
     100001    1    1    2    0    0  0.11332942230E+03  0.47421943326E+03  0.64799399782E+04  0.65000000000E+04  0.15050000000E+03 0.  1.
</event>
<event>
 4    1  0.5640637E-004  0.6500000E+04  0.7818608E-02  0.7223770E-01
         52   -1    0    0    0    0  0.00000000000E+00  0.00000000000E+00  0.64930732323E+04  0.65000000000E+04  0.30000000000E+03 0. -1.
        -52   -1    0    0    0    0 -0.00000000000E+00 -0.00000000000E+00 -0.64930732323E+04  0.65000000000E+04  0.30000000000E+03 0.  1.
     100001    1    1    2    0    0 -0.35238852428E+03  0.14789501245E+03  0.64870100311E+04  0.65000000000E+04  0.15050000000E+03 0. -1.
     100001    1    1    2    0    0  0.35238852428E+03 -0.14789501245E+03 -0.64870100311E+04  0.65000000000E+04  0.15050000000E+03 0.  1.
</event>
<event>
 4    1  0.5640637E-004  0.6500000E+04  0.7818608E-02  0.7223770E-01
         52   -1    0    0    0    0  0.00000000000E+00  0.00000000000E+00  0.64930732323E+04  0.65000000000E+04  0.30000000000E+03 0. -1.
        -52   -1    0    0    0    0 -0.00000000000E+00 -0.00000000000E+00 -0.64930732323E+04  0.65000000000E+04  0.30000000000E+03 0. -1.
     100001    1    1    2    0    0  0.11595521362E+04 -0.22397285414E+04  0.59888567068E+04  0.65000000000E+04  0.15050000000E+03 0. -1.
     100001    1    1    2    0    0 -0.11595521362E+04  0.22397285414E+04 -0.59888567068E+04  0.65000000000E+04  0.15050000000E+03 0. -1.
</event>
<event>
 4    1  0.5640637E-004  0.6500000E+04  0.7818608E-02  0.7223770E-01
         52   -1    0    0    0    0  0.00000000000E+00  0.00000000000E+00  0.64930732323E+04  0.65000000000E+04  0.30000000000E+03 0.  1.
        -52   -1    0    0    0    0 -0.00000000000E+00 -0.00000000000E+00 -0.64930732323E+04  0.65000000000E+04  0.30000000000E+03 0. -1.
     100001    1    1    2    0    0 -0.71481038837E+03  0.80066432244E+02 -0.64583268131E+04  0.65000000000E+04  0.15050000000E+03 0. -1.
     100001    1    1    2    0    0  0.71481038837E+03 -0.80066432244E+02  0.64583268131E+04  0.65000000000E+04  0.15050000000E+03 0.  1.
</event>
<event>
 4    1  0.5640637E-004  0.6500000E+04  0.7818608E-02  0.7223770E-01
         52   -1    0    0    0    0  0.00000000000E+00  0.00000000000E+00  0.64930732323E+04  0.65000000000E+04  0.30000000000E+03 0. -1.
        -52   -1    0    0    0    0 -0.00000000000E+00 -0.00000000000E+00 -0.64930732323E+04  0.65000000000E+04  0.30000000000E+03 0.  1.
     100001    1    1    2    0    0  0.87442316311E+03 -0.66340808987E+03 -0.64048905992E+04  0.65000000000E+04  0.15050000000E+03 0.  1.
     100001    1    1    2    0    0 -0.87442316311E+03  0.66340808987E+03  0.64048905992E+04  0.65000000000E+04  0.15050000000E+03 0. -1.
</event>
<event>
 4    1  0.5640637E-004  0.6500000E+04  0.7818608E-02  0.7223770E-01
         52   -1    0    0    0    0  0.00000000000E+00  0.00000000000E+00  0.64930732323E+04  0.65000000000E+04  0.30000000000E+03 0.  1.
        -52   -1    0    0    0    0 -0.00000000000E+00 -0.00000000000E+00 -0.64930732323E+04  0.65000000000E+04  0.30000000000E+03 0. -1.
     100001    1    1    2    0    0  0.69221485590E+03 -0.15624907792E+04  0.62695144077E+04  0.65000000000E+04  0.15050000000E+03 0.  1.
     100001    1    1    2    0    0 -0.69221485590E+03  0.15624907792E+04 -0.62695144077E+04  0.65000000000E+04  0.15050000000E+03 0. -1.
</event>
<event>
 4    1  0.5640637E-004  0.6500000E+04  0.7818608E-02  0.7223770E-01
         52   -1    0    0    0    0  0.00000000000E+00  0.00000000000E+00  0.64930732323E+04  0.65000000000E+04  0.30000000000E+03 0. -1.
        -52   -1    0    0    0    0 -0.00000000000E+00 -0.00000000000E+00 -0.64930732323E+04  0.65000000000E+04  0.30000000000E+03 0.  1.
     100001    1    1    2    0    0 -0.42718708667E+03  0.17471434960E+04 -0.62443855220E+04  0.65000000000E+04  0.15050000000E+03 0.  1.
     100001    1    1    2    0    0  0.42718708667E+03 -0.17471434960E+04  0.62443855220E+04  0.65000000000E+04  0.15050000000E+03 0. -1.
</event>
<event>
 4    1  0.5640637E-004  0.6500000E+04  0.7818608E-02  0.7223770E-01
         52   -1    0    0    0    0  0.00000000000E+00  0.00000000000E+00  0.64930732323E+04  0.65000000000E+04  0.30000000000E+03 0. -1.
        -52   -1    0    0    0    0 -0.00000000000E+00 -0.00000000000E+00 -0.64930732323E+04  0.65000000000E+04  0.30000000000E+03 0.  1.
     100001    1    1    2    0    0 -0.20446379110E+04  0.59959480123E+04 -0.14475541430E+04  0.65000000000E+04  0.15050000000E+03 0.  1.
     100001    1    1    2    0    0  0.20446379110E+04 -0.59959480123E+04  0.14475541430E+04  0.65000000000E+04  0.15050000000E+03 0. -1.
</event>
<event>
 4    1  0.5640637E-004  0.6500000E+04  0.7818608E-02  0.7223770E-01
         52   -1    0    0    0    0  0.00000000000E+00  0.00000000000E+00  0.64930732323E+04  0.65000000000E+04  0.30000000000E+03 0.  1.
        -52   -1    0    0    0    0 -0.00000000000E+00 -0.00000000000E+00 -0.64930732323E+04  0.65000000000E+04  0.30000000000E+03 0. -1.
     100001    1    1    2    0    0 -0.55092865885E+04 -0.16790043833E+04  0.30093280507E+04  0.65000000000E+04  0.15050000000E+03 0.  1.
     100001    1    1    2    0    0  0.55092865885E+04  0.16790043833E+04 -0.30093280507E+04  0.65000000000E+04  0.15050000000E+03 0. -1.
</event>
<event>
 4    1  0.5640637E-004  0.6500000E+04  0.7818608E-02  0.7223770E-01
         52   -1    0    0    0    0  0.00000000000E+00  0.00000000000E+00  0.64930732323E+04  0.65000000000E+04  0.30000000000E+03 0. -1.
        -52   -1    0    0    0    0 -0.00000000000E+00 -0.00000000000E+00 -0.64930732323E+04  0.65000000000E+04  0.30000000000E+03 0.  1.
     100001    1    1    2    0    0  0.26821644474E+04 -0.97078235877E+03  0.58387434641E+04  0.65000000000E+04  0.15050000000E+03 0. -1.
     100001    1    1    2    0    0 -0.26821644474E+04  0.97078235877E+03 -0.58387434641E+04  0.65000000000E+04  0.15050000000E+03 0.  1.
</event>
<event>
 4    1  0.5640637E-004  0.6500000E+04  0.7818608E-02  0.7223770E-01
         52   -1    0    0    0    0  0.00000000000E+00  0.00000000000E+00  0.64930732323E+04  0.65000000000E+04  0.30000000000E+03 0.  1.
        -52   -1    0    0    0    0 -0.00000000000E+00 -0.00000000000E+00 -0.64930732323E+04  0.65000000000E+04  0.30000000000E+03 0. -1.
     100001    1    1    2    0    0  0.89002072565E+03  0.67308770840E+02  0.64366670247E+04  0.65000000000E+04  0.15050000000E+03 0.  1.
     100001    1    1    2    0    0 -0.89002072565E+03 -0.67308770840E+02 -0.64366670247E+04  0.65000000000E+04  0.15050000000E+03 0. -1.
</event>
<event>
 4    1  0.5640637E-004  0.6500000E+04  0.7818608E-02  0.7223770E-01
         52   -1    0    0    0    0  0.00000000000E+00  0.00000000000E+00  0.64930732323E+04  0.65000000000E+04  0.30000000000E+03 0.  1.
        -52   -1    0    0    0    0 -0.00000000000E+00 -0.00000000000E+00 -0.64930732323E+04  0.65000000000E+04  0.30000000000E+03 0. -1.
     100001    1    1    2    0    0  0.60459196068E+04 -0.42335691681E+03  0.23441362543E+04  0.65000000000E+04  0.15050000000E+03 0.  1.
     100001    1    1    2    0    0 -0.60459196068E+04  0.42335691681E+03 -0.23441362543E+04  0.65000000000E+04  0.15050000000E+03 0. -1.
</event>
<event>
 4    1  0.5640637E-004  0.6500000E+04  0.7818608E-02  0.7223770E-01
         52   -1    0    0    0    0  0.00000000000E+00  0.00000000000E+00  0.64930732323E+04  0.65000000000E+04  0.30000000000E+03 0.  1.
        -52   -1    0    0    0    0 -0.00000000000E+00 -0.00000000000E+00 -0.64930732323E+04  0.65000000000E+04  0.30000000000E+03 0.  1.
     100001    1    1    2    0    0 -0.10929281835E+03  0.45701530158E+03  0.64812453930E+04  0.65000000000E+04  0.15050000000E+03 0.  1.
     100001    1    1    2    0    0  0.10929281835E+03 -0.45701530158E+03 -0.64812453930E+04  0.65000000000E+04  0.15050000000E+03 0.  1.
</event>
<event>
 4    1  0.5640637E-004  0.6500000E+04  0.7818608E-02  0.7223770E-01
         52   -1    0    0    0    0  0.00000000000E+00  0.00000000000E+00  0.64930732323E+04  0.65000000000E+04  0.30000000000E+03 0. -1.
        -52   -1    0    0    0    0 -0.00000000000E+00 -0.00000000000E+00 -0.64930732323E+04  0.65000000000E+04  0.30000000000E+03 0.  1.
     100001    1    1    2    0    0  0.40917576945E+03  0.99519697883E+03  0.64085495951E+04  0.65000000000E+04  0.15050000000E+03 0. -1.
     100001    1    1    2    0    0 -0.40917576945E+03 -0.99519697883E+03 -0.64085495951E+04  0.65000000000E+04  0.15050000000E+03 0.  1.
</event>
<event>
 4    1  0.5640637E-004  0.6500000E+04  0.7818608E-02  0.7223770E-01
         52   -1    0    0    0    0  0.00000000000E+00  0.00000000000E+00  0.64930732323E+04  0.65000000000E+04  0.30000000000E+03 0. -1.
        -52   -1    0    0    0    0 -0.00000000000E+00 -0.00000000000E+00 -0.64930732323E+04  0.65000000000E+04  0.30000000000E+03 0.  1.
     100001    1    1    2    0    0 -0.17625734825E+03 -0.42083627663E+03  0.64822202929E+04  0.65000000000E+04  0.15050000000E+03 0. -1.
     100001    1    1    2    0    0  0.17625734825E+03  0.42083627663E+03 -0.64822202929E+04  0.65000000000E+04  0.15050000000E+03 0.  1.
</event>
<event>
 4    1  0.5640637E-004  0.6500000E+04  0.7818608E-02  0.7223770E-01
         52   -1    0    0    0    0  0.00000000000E+00  0.00000000000E+00  0.64930732323E+04  0.65000000000E+04  0.30000000000E+03 0.  1.
        -52   -1    0    0    0    0 -0.00000000000E+00 -0.00000000000E+00 -0.64930732323E+04  0.65000000000E+04  0.30000000000E+03 0. -1.
     100001    1    1    2    0    0  0.18670845272E+04 -0.26370874893E+04 -0.56380062692E+04  0.65000000000E+04  0.15050000000E+03 0. -1.
     100001    1    1    2    0    0 -0.18670845272E+04  0.26370874893E+04  0.56380062692E+04  0.65000000000E+04  0.15050000000E+03 0.  1.
</event>
<event>
 4    1  0.5640637E-004  0.6500000E+04  0.7818608E-02  0.7223770E-01
         52   -1    0    0    0    0  0.00000000000E+00  0.00000000000E+00  0.64930732323E+04  0.65000000000E+04  0.30000000000E+03 0.  1.
        -52   -1    0    0    0    0 -0.00000000000E+00 -0.00000000000E+00 -0.64930732323E+04  0.65000000000E+04  0.30000000000E+03 0. -1.
     100001    1    1    2    0    0 -0.12828970406E+03  0.35712704941E+03  0.64871682399E+04  0.65000000000E+04  0.15050000000E+03 0.  1.
     100001    1    1    2    0    0  0.12828970406E+03 -0.35712704941E+03 -0.64871682399E+04  0.65000000000E+04  0.15050000000E+03 0. -1.
</event>
<event>
 4    1  0.5640637E-004  0.6500000E+04  0.7818608E-02  0.7223770E-01
         52   -1    0    0    0    0  0.00000000000E+00  0.00000000000E+00  0.64930732323E+04  0.65000000000E+04  0.30000000000E+03 0. -1.
        -52   -1    0    0    0    0 -0.00000000000E+00 -0.00000000000E+00 -0.64930732323E+04  0.65000000000E+04  0.30000000000E+03 0.  1.
     100001    1    1    2    0    0  0.30835671612E+04  0.38201201563E+04 -0.42574223779E+04  0.65000000000E+04  0.15050000000E+03 0.  1.
     100001    1    1    2    0    0 -0.30835671612E+04 -0.38201201563E+04  0.42574223779E+04  0.65000000000E+04  0.15050000000E+03 0. -1.
</event>
<event>
 4    1  0.5640637E-004  0.6500000E+04  0.7818608E-02  0.7223770E-01
         52   -1    0    0    0    0  0.00000000000E+00  0.00000000000E+00  0.64930732323E+04  0.65000000000E+04  0.30000000000E+03 0.  1.
        -52   -1    0    0    0    0 -0.00000000000E+00 -0.00000000000E+00 -0.64930732323E+04  0.65000000000E+04  0.30000000000E+03 0. -1.
     100001    1    1    2    0    0  0.72296868888E+02 -0.60600109608E+03 -0.64695351907E+04  0.65000000000E+04  0.15050000000E+03 0. -1.
     100001    1    1    2    0    0 -0.72296868888E+02  0.60600109608E+03  0.64695351907E+04  0.65000000000E+04  0.15050000000E+03 0.  1.
</event>
<event>
 4    1  0.5640637E-004  0.6500000E+04  0.7818608E-02  0.7223770E-01
         52   -1    0    0    0    0  0.00000000000E+00  0.00000000000E+00  0.64930732323E+04  0.65000000000E+04  0.30000000000E+03 0. -1.
        -52   -1    0    0    0    0 -0.00000000000E+00 -0.00000000000E+00 -0.64930732323E+04  0.65000000000E+04  0.30000000000E+03 0.  1.
     100001    1    1    2    0    0  0.10895475834E+03 -0.33613746450E+03  0.64886431722E+04  0.65000000000E+04  0.15050000000E+03 0. -1.
     100001    1    1    2    0    0 -0.10895475834E+03  0.33613746450E+03 -0.64886431722E+04  0.65000000000E+04  0.15050000000E+03 0.  1.
</event>
<event>
 4    1  0.5640637E-004  0.6500000E+04  0.7818608E-02  0.7223770E-01
         52   -1    0    0    0    0  0.00000000000E+00  0.00000000000E+00  0.64930732323E+04  0.65000000000E+04  0.30000000000E+03 0.  1.
        -52   -1    0    0    0    0 -0.00000000000E+00 -0.00000000000E+00 -0.64930732323E+04  0.65000000000E+04  0.30000000000E+03 0. -1.
     100001    1    1    2    0    0  0.15797176028E+04 -0.42102218437E+03  0.62892433858E+04  0.65000000000E+04  0.15050000000E+03 0.  1.
     100001    1    1    2    0    0 -0.15797176028E+04  0.42102218437E+03 -0.62892433858E+04  0.65000000000E+04  0.15050000000E+03 0. -1.
</event>
<event>
 4    1  0.5640637E-004  0.6500000E+04  0.7818608E-02  0.7223770E-01
         52   -1    0    0    0    0  0.00000000000E+00  0.00000000000E+00  0.64930732323E+04  0.65000000000E+04  0.30000000000E+03 0.  1.
        -52   -1    0    0    0    0 -0.00000000000E+00 -0.00000000000E+00 -0.64930732323E+04  0.65000000000E+04  0.30000000000E+03 0. -1.
     100001    1    1    2    0    0  0.74138535058E+03  0.21821361955E+04 -0.60758521325E+04  0.65000000000E+04  0.15050000000E+03 0. -1.
     100001    1    1    2    0    0 -0.74138535058E+03 -0.21821361955E+04  0.60758521325E+04  0.65000000000E+04  0.15050000000E+03 0.  1.
</event>
<event>
 4    1  0.5640637E-004  0.6500000E+04  0.7818608E-02  0.7223770E-01
         52   -1    0    0    0    0  0.00000000000E+00  0.00000000000E+00  0.64930732323E+04  0.65000000000E+04  0.30000000000E+03 0.  1.
        -52   -1    0    0    0    0 -0.00000000000E+00 -0.00000000000E+00 -0.64930732323E+04  0.65000000000E+04  0.30000000000E+03 0. -1.
     100001    1    1    2    0    0  0.25368690831E+03 -0.10965454859E+04 -0.64000453670E+04  0.65000000000E+04  0.15050000000E+03 0. -1.
     100001    1    1    2    0    0 -0.25368690831E+03  0.10965454859E+04  0.64000453670E+04  0.65000000000E+04  0.15050000000E+03 0.  1.
</event>
<event>
 4    1  0.5640637E-004  0.6500000E+04  0.7818608E-02  0.7223770E-01
         52   -1    0    0    0    0  0.00000000000E+00  0.00000000000E+00  0.64930732323E+04  0.65000000000E+04  0.30000000000E+03 0. -1.
        -52   -1    0    0    0    0 -0.00000000000E+00 -0.00000000000E+00 -0.64930732323E+04  0.65000000000E+04  0.30000000000E+03 0.  1.
     100001    1    1    2    0    0 -0.63406073214E+01  0.13020336211E+04 -0.63664761050E+04  0.65000000000E+04  0.15050000000E+03 0.  1.
     100001    1    1    2    0    0  0.63406073214E+01 -0.13020336211E+04  0.63664761050E+04  0.65000000000E+04  0.15050000000E+03 0. -1.
</event>
<event>
 4    1  0.5640637E-004  0.6500000E+04  0.7818608E-02  0.7223770E-01
         52   -1    0    0    0    0  0.00000000000E+00  0.00000000000E+00  0.64930732323E+04  0.65000000000E+04  0.30000000000E+03 0. -1.
        -52   -1    0    0    0    0 -0.00000000000E+00 -0.00000000000E+00 -0.64930732323E+04  0.65000000000E+04  0.30000000000E+03 0.  1.
     100001    1    1    2    0    0  0.27350405509E+04 -0.31493430248E+04 -0.49828246454E+04  0.65000000000E+04  0.15050000000E+03 0.  1.
     100001    1    1    2    0    0 -0.27350405509E+04  0.31493430248E+04  0.49828246454E+04  0.65000000000E+04  0.15050000000E+03 0. -1.
</event>
<event>
 4    1  0.5640637E-004  0.6500000E+04  0.7818608E-02  0.7223770E-01
         52   -1    0    0    0    0  0.00000000000E+00  0.00000000000E+00  0.64930732323E+04  0.65000000000E+04  0.30000000000E+03 0.  1.
        -52   -1    0    0    0    0 -0.00000000000E+00 -0.00000000000E+00 -0.64930732323E+04  0.65000000000E+04  0.30000000000E+03 0. -1.
     100001    1    1    2    0    0 -0.17604604032E+03  0.20038589417E+03 -0.64927808399E+04  0.65000000000E+04  0.15050000000E+03 0. -1.
     100001    1    1    2    0    0  0.17604604032E+03 -0.20038589417E+03  0.64927808399E+04  0.65000000000E+04  0.15050000000E+03 0.  1.
</event>
<event>
 4    1  0.5640637E-004  0.6500000E+04  0.7818608E-02  0.7223770E-01
         52   -1    0    0    0    0  0.00000000000E+00  0.00000000000E+00  0.64930732323E+04  0.65000000000E+04  0.30000000000E+03 0. -1.
        -52   -1    0    0    0    0 -0.00000000000E+00 -0.00000000000E+00 -0.64930732323E+04  0.65000000000E+04  0.30000000000E+03 0.  1.
     100001    1    1    2    0    0  0.67546627993E+03 -0.29275860337E+03 -0.64564221868E+04  0.65000000000E+04  0.15050000000E+03 0.  1.
     100001    1    1    2    0    0 -0.67546627993E+03  0.29275860337E+03  0.64564221868E+04  0.65000000000E+04  0.15050000000E+03 0. -1.
</event>
<event>
 4    1  0.5640637E-004  0.6500000E+04  0.7818608E-02  0.7223770E-01
         52   -1    0    0    0    0  0.00000000000E+00  0.00000000000E+00  0.64930732323E+04  0.65000000000E+04  0.30000000000E+03 0. -1.
        -52   -1    0    0    0    0 -0.00000000000E+00 -0.00000000000E+00 -0.64930732323E+04  0.65000000000E+04  0.30000000000E+03 0.  1.
     100001    1    1    2    0    0  0.39632948790E+04 -0.21653987965E+04 -0.46723325550E+04  0.65000000000E+04  0.15050000000E+03 0.  1.
     100001    1    1    2    0    0 -0.39632948790E+04  0.21653987965E+04  0.46723325550E+04  0.65000000000E+04  0.15050000000E+03 0. -1.
</event>
<event>
 4    1  0.5640637E-004  0.6500000E+04  0.7818608E-02  0.7223770E-01
         52   -1    0    0    0    0  0.00000000000E+00  0.00000000000E+00  0.64930732323E+04  0.65000000000E+04  0.30000000000E+03 0. -1.
        -52   -1    0    0    0    0 -0.00000000000E+00 -0.00000000000E+00 -0.64930732323E+04  0.65000000000E+04  0.30000000000E+03 0.  1.
     100001    1    1    2    0    0 -0.59710496654E+03 -0.61472833307E+03  0.64415001735E+04  0.65000000000E+04  0.15050000000E+03 0. -1.
     100001    1    1    2    0    0  0.59710496654E+03  0.61472833307E+03 -0.64415001735E+04  0.65000000000E+04  0.15050000000E+03 0.  1.
</event>
<event>
 4    1  0.5640637E-004  0.6500000E+04  0.7818608E-02  0.7223770E-01
         52   -1    0    0    0    0  0.00000000000E+00  0.00000000000E+00  0.64930732323E+04  0.65000000000E+04  0.30000000000E+03 0.  1.
        -52   -1    0    0    0    0 -0.00000000000E+00 -0.00000000000E+00 -0.64930732323E+04  0.65000000000E+04  0.30000000000E+03 0. -1.
     100001    1    1    2    0    0  0.44179382452E+03  0.84857133603E+03  0.64274485338E+04  0.65000000000E+04  0.15050000000E+03 0.  1.
     100001    1    1    2    0    0 -0.44179382452E+03 -0.84857133603E+03 -0.64274485338E+04  0.65000000000E+04  0.15050000000E+03 0. -1.
</event>
<event>
 4    1  0.5640637E-004  0.6500000E+04  0.7818608E-02  0.7223770E-01
         52   -1    0    0    0    0  0.00000000000E+00  0.00000000000E+00  0.64930732323E+04  0.65000000000E+04  0.30000000000E+03 0.  1.
        -52   -1    0    0    0    0 -0.00000000000E+00 -0.00000000000E+00 -0.64930732323E+04  0.65000000000E+04  0.30000000000E+03 0. -1.
     100001    1    1    2    0    0 -0.10131985308E+04 -0.14960824730E+04 -0.62419961327E+04  0.65000000000E+04  0.15050000000E+03 0. -1.
     100001    1    1    2    0    0  0.10131985308E+04  0.14960824730E+04  0.62419961327E+04  0.65000000000E+04  0.15050000000E+03 0.  1.
</event>
<event>
 4    1  0.5640637E-004  0.6500000E+04  0.7818608E-02  0.7223770E-01
         52   -1    0    0    0    0  0.00000000000E+00  0.00000000000E+00  0.64930732323E+04  0.65000000000E+04  0.30000000000E+03 0.  1.
        -52   -1    0    0    0    0 -0.00000000000E+00 -0.00000000000E+00 -0.64930732323E+04  0.65000000000E+04  0.30000000000E+03 0. -1.
     100001    1    1    2    0    0 -0.30902451714E+03 -0.95232589028E+03  0.64206642177E+04  0.65000000000E+04  0.15050000000E+03 0.  1.
     100001    1    1    2    0    0  0.30902451714E+03  0.95232589028E+03 -0.64206642177E+04  0.65000000000E+04  0.15050000000E+03 0. -1.
</event>
<event>
 4    1  0.5640637E-004  0.6500000E+04  0.7818608E-02  0.7223770E-01
         52   -1    0    0    0    0  0.00000000000E+00  0.00000000000E+00  0.64930732323E+04  0.65000000000E+04  0.30000000000E+03 0.  1.
        -52   -1    0    0    0    0 -0.00000000000E+00 -0.00000000000E+00 -0.64930732323E+04  0.65000000000E+04  0.30000000000E+03 0. -1.
     100001    1    1    2    0    0  0.33354731674E+03  0.55532967315E+03  0.64658877884E+04  0.65000000000E+04  0.15050000000E+03 0.  1.
     100001    1    1    2    0    0 -0.33354731674E+03 -0.55532967315E+03 -0.64658877884E+04  0.65000000000E+04  0.15050000000E+03 0. -1.
</event>
<event>
 4    1  0.5640637E-004  0.6500000E+04  0.7818608E-02  0.7223770E-01
         52   -1    0    0    0    0  0.00000000000E+00  0.00000000000E+00  0.64930732323E+04  0.65000000000E+04  0.30000000000E+03 0. -1.
        -52   -1    0    0    0    0 -0.00000000000E+00 -0.00000000000E+00 -0.64930732323E+04  0.65000000000E+04  0.30000000000E+03 0.  1.
     100001    1    1    2    0    0 -0.42395446111E+03 -0.49373305160E+03 -0.64655889166E+04  0.65000000000E+04  0.15050000000E+03 0.  1.
     100001    1    1    2    0    0  0.42395446111E+03  0.49373305160E+03  0.64655889166E+04  0.65000000000E+04  0.15050000000E+03 0. -1.
</event>
<event>
 4    1  0.5640637E-004  0.6500000E+04  0.7818608E-02  0.7223770E-01
         52   -1    0    0    0    0  0.00000000000E+00  0.00000000000E+00  0.64930732323E+04  0.65000000000E+04  0.30000000000E+03 0.  1.
        -52   -1    0    0    0    0 -0.00000000000E+00 -0.00000000000E+00 -0.64930732323E+04  0.65000000000E+04  0.30000000000E+03 0. -1.
     100001    1    1    2    0    0 -0.87108267036E+03 -0.73707007932E+03  0.63972878964E+04  0.65000000000E+04  0.15050000000E+03 0.  1.
     100001    1    1    2    0    0  0.87108267036E+03  0.73707007932E+03 -0.63972878964E+04  0.65000000000E+04  0.15050000000E+03 0. -1.
</event>
<event>
 4    1  0.5640637E-004  0.6500000E+04  0.7818608E-02  0.7223770E-01
         52   -1    0    0    0    0  0.00000000000E+00  0.00000000000E+00  0.64930732323E+04  0.65000000000E+04  0.30000000000E+03 0. -1.
        -52   -1    0    0    0    0 -0.00000000000E+00 -0.00000000000E+00 -0.64930732323E+04  0.65000000000E+04  0.30000000000E+03 0.  1.
     100001    1    1    2    0    0 -0.15957626058E+04 -0.33767311414E+04  0.53177606429E+04  0.65000000000E+04  0.15050000000E+03 0. -1.
     100001    1    1    2    0    0  0.15957626058E+04  0.33767311414E+04 -0.53177606429E+04  0.65000000000E+04  0.15050000000E+03 0.  1.
</event>
<event>
 4    1  0.5640637E-004  0.6500000E+04  0.7818608E-02  0.7223770E-01
         52   -1    0    0    0    0  0.00000000000E+00  0.00000000000E+00  0.64930732323E+04  0.65000000000E+04  0.30000000000E+03 0.  1.
        -52   -1    0    0    0    0 -0.00000000000E+00 -0.00000000000E+00 -0.64930732323E+04  0.65000000000E+04  0.30000000000E+03 0. -1.
     100001    1    1    2    0    0 -0.44460282458E+03 -0.54105931128E+03  0.64604127500E+04  0.65000000000E+04  0.15050000000E+03 0.  1.
     100001    1    1    2    0    0  0.44460282458E+03  0.54105931128E+03 -0.64604127500E+04  0.65000000000E+04  0.15050000000E+03 0. -1.
</event>
<event>
 4    1  0.5640637E-004  0.6500000E+04  0.7818608E-02  0.7223770E-01
         52   -1    0    0    0    0  0.00000000000E+00  0.00000000000E+00  0.64930732323E+04  0.65000000000E+04  0.30000000000E+03 0.  1.
        -52   -1    0    0    0    0 -0.00000000000E+00 -0.00000000000E+00 -0.64930732323E+04  0.65000000000E+04  0.30000000000E+03 0. -1.
     100001    1    1    2    0    0 -0.75691819680E+03  0.29911376753E+02 -0.64539545941E+04  0.65000000000E+04  0.15050000000E+03 0. -1.
     100001    1    1    2    0    0  0.75691819680E+03 -0.29911376753E+02  0.64539545941E+04  0.65000000000E+04  0.15050000000E+03 0.  1.
</event>
<event>
 4    1  0.5640637E-004  0.6500000E+04  0.7818608E-02  0.7223770E-01
         52   -1    0    0    0    0  0.00000000000E+00  0.00000000000E+00  0.64930732323E+04  0.65000000000E+04  0.30000000000E+03 0. -1.
        -52   -1    0    0    0    0 -0.00000000000E+00 -0.00000000000E+00 -0.64930732323E+04  0.65000000000E+04  0.30000000000E+03 0.  1.
     100001    1    1    2    0    0  0.12455935848E+04  0.30036379399E+04  0.56261892518E+04  0.65000000000E+04  0.15050000000E+03 0. -1.
     100001    1    1    2    0    0 -0.12455935848E+04 -0.30036379399E+04 -0.56261892518E+04  0.65000000000E+04  0.15050000000E+03 0.  1.
</event>
<event>
 4    1  0.5640637E-004  0.6500000E+04  0.7818608E-02  0.7223770E-01
         52   -1    0    0    0    0  0.00000000000E+00  0.00000000000E+00  0.64930732323E+04  0.65000000000E+04  0.30000000000E+03 0.  1.
        -52   -1    0    0    0    0 -0.00000000000E+00 -0.00000000000E+00 -0.64930732323E+04  0.65000000000E+04  0.30000000000E+03 0. -1.
     100001    1    1    2    0    0 -0.35860683626E+03 -0.67729304040E+03 -0.64529082610E+04  0.65000000000E+04  0.15050000000E+03 0. -1.
     100001    1    1    2    0    0  0.35860683626E+03  0.67729304040E+03  0.64529082610E+04  0.65000000000E+04  0.15050000000E+03 0.  1.
</event>
<event>
 4    1  0.5640637E-004  0.6500000E+04  0.7818608E-02  0.7223770E-01
         52   -1    0    0    0    0  0.00000000000E+00  0.00000000000E+00  0.64930732323E+04  0.65000000000E+04  0.30000000000E+03 0.  1.
        -52   -1    0    0    0    0 -0.00000000000E+00 -0.00000000000E+00 -0.64930732323E+04  0.65000000000E+04  0.30000000000E+03 0.  1.
     100001    1    1    2    0    0  0.16078047417E+03  0.90512533679E+02 -0.64956375261E+04  0.65000000000E+04  0.15050000000E+03 0.  1.
     100001    1    1    2    0    0 -0.16078047417E+03 -0.90512533679E+02  0.64956375261E+04  0.65000000000E+04  0.15050000000E+03 0.  1.
</event>
<event>
 4    1  0.5640637E-004  0.6500000E+04  0.7818608E-02  0.7223770E-01
         52   -1    0    0    0    0  0.00000000000E+00  0.00000000000E+00  0.64930732323E+04  0.65000000000E+04  0.30000000000E+03 0.  1.
        -52   -1    0    0    0    0 -0.00000000000E+00 -0.00000000000E+00 -0.64930732323E+04  0.65000000000E+04  0.30000000000E+03 0.  1.
     100001    1    1    2    0    0  0.10638232004E+03  0.12374971550E+04 -0.63784507009E+04  0.65000000000E+04  0.15050000000E+03 0.  1.
     100001    1    1    2    0    0 -0.10638232004E+03 -0.12374971550E+04  0.63784507009E+04  0.65000000000E+04  0.15050000000E+03 0.  1.
</event>
<event>
 4    1  0.5640637E-004  0.6500000E+04  0.7818608E-02  0.7223770E-01
         52   -1    0    0    0    0  0.00000000000E+00  0.00000000000E+00  0.64930732323E+04  0.65000000000E+04  0.30000000000E+03 0. -1.
        -52   -1    0    0    0    0 -0.00000000000E+00 -0.00000000000E+00 -0.64930732323E+04  0.65000000000E+04  0.30000000000E+03 0. -1.
     100001    1    1    2    0    0  0.14516373120E+03  0.82193350400E+02 -0.64961158775E+04  0.65000000000E+04  0.15050000000E+03 0. -1.
     100001    1    1    2    0    0 -0.14516373120E+03 -0.82193350400E+02  0.64961158775E+04  0.65000000000E+04  0.15050000000E+03 0. -1.
</event>
<event>
 4    1  0.5640637E-004  0.6500000E+04  0.7818608E-02  0.7223770E-01
         52   -1    0    0    0    0  0.00000000000E+00  0.00000000000E+00  0.64930732323E+04  0.65000000000E+04  0.30000000000E+03 0. -1.
        -52   -1    0    0    0    0 -0.00000000000E+00 -0.00000000000E+00 -0.64930732323E+04  0.65000000000E+04  0.30000000000E+03 0.  1.
     100001    1    1    2    0    0  0.32775186663E+04  0.58399946501E+03 -0.55806958139E+04  0.65000000000E+04  0.15050000000E+03 0.  1.
     100001    1    1    2    0    0 -0.32775186663E+04 -0.58399946501E+03  0.55806958139E+04  0.65000000000E+04  0.15050000000E+03 0. -1.
</event>
<event>
 4    1  0.5640637E-004  0.6500000E+04  0.7818608E-02  0.7223770E-01
         52   -1    0    0    0    0  0.00000000000E+00  0.00000000000E+00  0.64930732323E+04  0.65000000000E+04  0.30000000000E+03 0. -1.
        -52   -1    0    0    0    0 -0.00000000000E+00 -0.00000000000E+00 -0.64930732323E+04  0.65000000000E+04  0.30000000000E+03 0.  1.
     100001    1    1    2    0    0  0.97543782444E+03  0.13104086361E+04 -0.62895707331E+04  0.65000000000E+04  0.15050000000E+03 0.  1.
     100001    1    1    2    0    0 -0.97543782444E+03 -0.13104086361E+04  0.62895707331E+04  0.65000000000E+04  0.15050000000E+03 0. -1.
</event>
<event>
 4    1  0.5640637E-004  0.6500000E+04  0.7818608E-02  0.7223770E-01
         52   -1    0    0    0    0  0.00000000000E+00  0.00000000000E+00  0.64930732323E+04  0.65000000000E+04  0.30000000000E+03 0.  1.
        -52   -1    0    0    0    0 -0.00000000000E+00 -0.00000000000E+00 -0.64930732323E+04  0.65000000000E+04  0.30000000000E+03 0. -1.
     100001    1    1    2    0    0  0.62129888894E+03  0.45979794529E+02  0.64683246130E+04  0.65000000000E+04  0.15050000000E+03 0.  1.
     100001    1    1    2    0    0 -0.62129888894E+03 -0.45979794529E+02 -0.64683246130E+04  0.65000000000E+04  0.15050000000E+03 0. -1.
</event>
<event>
 4    1  0.5640637E-004  0.6500000E+04  0.7818608E-02  0.7223770E-01
         52   -1    0    0    0    0  0.00000000000E+00  0.00000000000E+00  0.64930732323E+04  0.65000000000E+04  0.30000000000E+03 0. -1.
        -52   -1    0    0    0    0 -0.00000000000E+00 -0.00000000000E+00 -0.64930732323E+04  0.65000000000E+04  0.30000000000E+03 0.  1.
     100001    1    1    2    0    0 -0.25660540843E+03 -0.32269800915E+03  0.64851653340E+04  0.65000000000E+04  0.15050000000E+03 0. -1.
     100001    1    1    2    0    0  0.25660540843E+03  0.32269800915E+03 -0.64851653340E+04  0.65000000000E+04  0.15050000000E+03 0.  1.
</event>
<event>
 4    1  0.5640637E-004  0.6500000E+04  0.7818608E-02  0.7223770E-01
         52   -1    0    0    0    0  0.00000000000E+00  0.00000000000E+00  0.64930732323E+04  0.65000000000E+04  0.30000000000E+03 0.  1.
        -52   -1    0    0    0    0 -0.00000000000E+00 -0.00000000000E+00 -0.64930732323E+04  0.65000000000E+04  0.30000000000E+03 0. -1.
     100001    1    1    2    0    0 -0.56975578510E+04 -0.31045892598E+04 -0.35596321746E+03  0.65000000000E+04  0.15050000000E+03 0. -1.
     100001    1    1    2    0    0  0.56975578510E+04  0.31045892598E+04  0.35596321746E+03  0.65000000000E+04  0.15050000000E+03 0.  1.
</event>
<event>
 4    1  0.5640637E-004  0.6500000E+04  0.7818608E-02  0.7223770E-01
         52   -1    0    0    0    0  0.00000000000E+00  0.00000000000E+00  0.64930732323E+04  0.65000000000E+04  0.30000000000E+03 0. -1.
        -52   -1    0    0    0    0 -0.00000000000E+00 -0.00000000000E+00 -0.64930732323E+04  0.65000000000E+04  0.30000000000E+03 0.  1.
     100001    1    1    2    0    0  0.94382940685E+03  0.12636051390E+04 -0.63039541443E+04  0.65000000000E+04  0.15050000000E+03 0.  1.
     100001    1    1    2    0    0 -0.94382940685E+03 -0.12636051390E+04  0.63039541443E+04  0.65000000000E+04  0.15050000000E+03 0. -1.
</event>
<event>
 4    1  0.5640637E-004  0.6500000E+04  0.7818608E-02  0.7223770E-01
         52   -1    0    0    0    0  0.00000000000E+00  0.00000000000E+00  0.64930732323E+04  0.65000000000E+04  0.30000000000E+03 0.  1.
        -52   -1    0    0    0    0 -0.00000000000E+00 -0.00000000000E+00 -0.64930732323E+04  0.65000000000E+04  0.30000000000E+03 0. -1.
     100001    1    1    2    0    0  0.54983132895E+04  0.99345751250E+03  0.33179727081E+04  0.65000000000E+04  0.15050000000E+03 0.  1.
     100001    1    1    2    0    0 -0.54983132895E+04 -0.99345751250E+03 -0.33179727081E+04  0.65000000000E+04  0.15050000000E+03 0. -1.
</event>
<event>
 4    1  0.5640637E-004  0.6500000E+04  0.7818608E-02  0.7223770E-01
         52   -1    0    0    0    0  0.00000000000E+00  0.00000000000E+00  0.64930732323E+04  0.65000000000E+04  0.30000000000E+03 0. -1.
        -52   -1    0    0    0    0 -0.00000000000E+00 -0.00000000000E+00 -0.64930732323E+04  0.65000000000E+04  0.30000000000E+03 0. -1.
     100001    1    1    2    0    0  0.22260727048E+03 -0.25531281171E+03 -0.64894230191E+04  0.65000000000E+04  0.15050000000E+03 0. -1.
     100001    1    1    2    0    0 -0.22260727048E+03  0.25531281171E+03  0.64894230191E+04  0.65000000000E+04  0.15050000000E+03 0. -1.
</event>
<event>
 4    1  0.5640637E-004  0.6500000E+04  0.7818608E-02  0.7223770E-01
         52   -1    0    0    0    0  0.00000000000E+00  0.00000000000E+00  0.64930732323E+04  0.65000000000E+04  0.30000000000E+03 0. -1.
        -52   -1    0    0    0    0 -0.00000000000E+00 -0.00000000000E+00 -0.64930732323E+04  0.65000000000E+04  0.30000000000E+03 0.  1.
     100001    1    1    2    0    0  0.13281571317E+04  0.23159828320E+04 -0.59244891683E+04  0.65000000000E+04  0.15050000000E+03 0.  1.
     100001    1    1    2    0    0 -0.13281571317E+04 -0.23159828320E+04  0.59244891683E+04  0.65000000000E+04  0.15050000000E+03 0. -1.
</event>
<event>
 4    1  0.5640637E-004  0.6500000E+04  0.7818608E-02  0.7223770E-01
         52   -1    0    0    0    0  0.00000000000E+00  0.00000000000E+00  0.64930732323E+04  0.65000000000E+04  0.30000000000E+03 0.  1.
        -52   -1    0    0    0    0 -0.00000000000E+00 -0.00000000000E+00 -0.64930732323E+04  0.65000000000E+04  0.30000000000E+03 0. -1.
     100001    1    1    2    0    0  0.14718381975E+04 -0.48927088018E+04 -0.40152761613E+04  0.65000000000E+04  0.15050000000E+03 0. -1.
     100001    1    1    2    0    0 -0.14718381975E+04  0.48927088018E+04  0.40152761613E+04  0.65000000000E+04  0.15050000000E+03 0.  1.
</event>
<event>
 4    1  0.5640637E-004  0.6500000E+04  0.7818608E-02  0.7223770E-01
         52   -1    0    0    0    0  0.00000000000E+00  0.00000000000E+00  0.64930732323E+04  0.65000000000E+04  0.30000000000E+03 0. -1.
        -52   -1    0    0    0    0 -0.00000000000E+00 -0.00000000000E+00 -0.64930732323E+04  0.65000000000E+04  0.30000000000E+03 0.  1.
     100001    1    1    2    0    0  0.69939056828E+03 -0.14445191097E+04  0.62969490330E+04  0.65000000000E+04  0.15050000000E+03 0. -1.
     100001    1    1    2    0    0 -0.69939056828E+03  0.14445191097E+04 -0.62969490330E+04  0.65000000000E+04  0.15050000000E+03 0.  1.
</event>
<event>
 4    1  0.5640637E-004  0.6500000E+04  0.7818608E-02  0.7223770E-01
         52   -1    0    0    0    0  0.00000000000E+00  0.00000000000E+00  0.64930732323E+04  0.65000000000E+04  0.30000000000E+03 0. -1.
        -52   -1    0    0    0    0 -0.00000000000E+00 -0.00000000000E+00 -0.64930732323E+04  0.65000000000E+04  0.30000000000E+03 0. -1.
     100001    1    1    2    0    0  0.17159118737E+03 -0.57017447882E+02 -0.64957413145E+04  0.65000000000E+04  0.15050000000E+03 0. -1.
     100001    1    1    2    0    0 -0.17159118737E+03  0.57017447882E+02  0.64957413145E+04  0.65000000000E+04  0.15050000000E+03 0. -1.
</event>
<event>
 4    1  0.5640637E-004  0.6500000E+04  0.7818608E-02  0.7223770E-01
         52   -1    0    0    0    0  0.00000000000E+00  0.00000000000E+00  0.64930732323E+04  0.65000000000E+04  0.30000000000E+03 0.  1.
        -52   -1    0    0    0    0 -0.00000000000E+00 -0.00000000000E+00 -0.64930732323E+04  0.65000000000E+04  0.30000000000E+03 0.  1.
     100001    1    1    2    0    0 -0.21700252005E+03 -0.24397332440E+03  0.64900490501E+04  0.65000000000E+04  0.15050000000E+03 0.  1.
     100001    1    1    2    0    0  0.21700252005E+03  0.24397332440E+03 -0.64900490501E+04  0.65000000000E+04  0.15050000000E+03 0.  1.
</event>
<event>
 4    1  0.5640637E-004  0.6500000E+04  0.7818608E-02  0.7223770E-01
         52   -1    0    0    0    0  0.00000000000E+00  0.00000000000E+00  0.64930732323E+04  0.65000000000E+04  0.30000000000E+03 0. -1.
        -52   -1    0    0    0    0 -0.00000000000E+00 -0.00000000000E+00 -0.64930732323E+04  0.65000000000E+04  0.30000000000E+03 0. -1.
     100001    1    1    2    0    0  0.15070804045E+01 -0.15960323939E+03  0.64962969671E+04  0.65000000000E+04  0.15050000000E+03 0. -1.
     100001    1    1    2    0    0 -0.15070804045E+01  0.15960323939E+03 -0.64962969671E+04  0.65000000000E+04  0.15050000000E+03 0. -1.
</event>
<event>
 4    1  0.5640637E-004  0.6500000E+04  0.7818608E-02  0.7223770E-01
         52   -1    0    0    0    0  0.00000000000E+00  0.00000000000E+00  0.64930732323E+04  0.65000000000E+04  0.30000000000E+03 0. -1.
        -52   -1    0    0    0    0 -0.00000000000E+00 -0.00000000000E+00 -0.64930732323E+04  0.65000000000E+04  0.30000000000E+03 0.  1.
     100001    1    1    2    0    0 -0.35671680732E+04 -0.17691925315E+04  0.51354278765E+04  0.65000000000E+04  0.15050000000E+03 0. -1.
     100001    1    1    2    0    0  0.35671680732E+04  0.17691925315E+04 -0.51354278765E+04  0.65000000000E+04  0.15050000000E+03 0.  1.
</event>
<event>
 4    1  0.5640637E-004  0.6500000E+04  0.7818608E-02  0.7223770E-01
         52   -1    0    0    0    0  0.00000000000E+00  0.00000000000E+00  0.64930732323E+04  0.65000000000E+04  0.30000000000E+03 0.  1.
        -52   -1    0    0    0    0 -0.00000000000E+00 -0.00000000000E+00 -0.64930732323E+04  0.65000000000E+04  0.30000000000E+03 0. -1.
     100001    1    1    2    0    0 -0.17820912369E+03 -0.64016739366E+02 -0.64954979113E+04  0.65000000000E+04  0.15050000000E+03 0. -1.
     100001    1    1    2    0    0  0.17820912369E+03  0.64016739366E+02  0.64954979113E+04  0.65000000000E+04  0.15050000000E+03 0.  1.
</event>
<event>
 4    1  0.5640637E-004  0.6500000E+04  0.7818608E-02  0.7223770E-01
         52   -1    0    0    0    0  0.00000000000E+00  0.00000000000E+00  0.64930732323E+04  0.65000000000E+04  0.30000000000E+03 0.  1.
        -52   -1    0    0    0    0 -0.00000000000E+00 -0.00000000000E+00 -0.64930732323E+04  0.65000000000E+04  0.30000000000E+03 0. -1.
     100001    1    1    2    0    0  0.53354359653E+03 -0.93471251313E+03  0.64085094600E+04  0.65000000000E+04  0.15050000000E+03 0.  1.
     100001    1    1    2    0    0 -0.53354359653E+03  0.93471251313E+03 -0.64085094600E+04  0.65000000000E+04  0.15050000000E+03 0. -1.
</event>
<event>
 4    1  0.5640637E-004  0.6500000E+04  0.7818608E-02  0.7223770E-01
         52   -1    0    0    0    0  0.00000000000E+00  0.00000000000E+00  0.64930732323E+04  0.65000000000E+04  0.30000000000E+03 0. -1.
        -52   -1    0    0    0    0 -0.00000000000E+00 -0.00000000000E+00 -0.64930732323E+04  0.65000000000E+04  0.30000000000E+03 0.  1.
     100001    1    1    2    0    0  0.28320963263E+04  0.16059826713E+04 -0.56238243045E+04  0.65000000000E+04  0.15050000000E+03 0.  1.
     100001    1    1    2    0    0 -0.28320963263E+04 -0.16059826713E+04  0.56238243045E+04  0.65000000000E+04  0.15050000000E+03 0. -1.
</event>
<event>
 4    1  0.5640637E-004  0.6500000E+04  0.7818608E-02  0.7223770E-01
         52   -1    0    0    0    0  0.00000000000E+00  0.00000000000E+00  0.64930732323E+04  0.65000000000E+04  0.30000000000E+03 0. -1.
        -52   -1    0    0    0    0 -0.00000000000E+00 -0.00000000000E+00 -0.64930732323E+04  0.65000000000E+04  0.30000000000E+03 0.  1.
     100001    1    1    2    0    0  0.13806320183E+03 -0.19630766192E+03 -0.64938241125E+04  0.65000000000E+04  0.15050000000E+03 0.  1.
     100001    1    1    2    0    0 -0.13806320183E+03  0.19630766192E+03  0.64938241125E+04  0.65000000000E+04  0.15050000000E+03 0. -1.
</event>
<event>
 4    1  0.5640637E-004  0.6500000E+04  0.7818608E-02  0.7223770E-01
         52   -1    0    0    0    0  0.00000000000E+00  0.00000000000E+00  0.64930732323E+04  0.65000000000E+04  0.30000000000E+03 0.  1.
        -52   -1    0    0    0    0 -0.00000000000E+00 -0.00000000000E+00 -0.64930732323E+04  0.65000000000E+04  0.30000000000E+03 0.  1.
     100001    1    1    2    0    0  0.16565611010E+03  0.48523736747E+03 -0.64779975687E+04  0.65000000000E+04  0.15050000000E+03 0.  1.
     100001    1    1    2    0    0 -0.16565611010E+03 -0.48523736747E+03  0.64779975687E+04  0.65000000000E+04  0.15050000000E+03 0.  1.
</event>
<event>
 4    1  0.5640637E-004  0.6500000E+04  0.7818608E-02  0.7223770E-01
         52   -1    0    0    0    0  0.00000000000E+00  0.00000000000E+00  0.64930732323E+04  0.65000000000E+04  0.30000000000E+03 0.  1.
        -52   -1    0    0    0    0 -0.00000000000E+00 -0.00000000000E+00 -0.64930732323E+04  0.65000000000E+04  0.30000000000E+03 0. -1.
     100001    1    1    2    0    0 -0.57198741524E+04  0.30388616848E+04 -0.52508008062E+03  0.65000000000E+04  0.15050000000E+03 0. -1.
     100001    1    1    2    0    0  0.57198741524E+04 -0.30388616848E+04  0.52508008062E+03  0.65000000000E+04  0.15050000000E+03 0.  1.
</event>
<event>
 4    1  0.5640637E-004  0.6500000E+04  0.7818608E-02  0.7223770E-01
         52   -1    0    0    0    0  0.00000000000E+00  0.00000000000E+00  0.64930732323E+04  0.65000000000E+04  0.30000000000E+03 0.  1.
        -52   -1    0    0    0    0 -0.00000000000E+00 -0.00000000000E+00 -0.64930732323E+04  0.65000000000E+04  0.30000000000E+03 0. -1.
     100001    1    1    2    0    0 -0.76240566614E+03  0.28326757200E+03  0.64471580431E+04  0.65000000000E+04  0.15050000000E+03 0.  1.
     100001    1    1    2    0    0  0.76240566614E+03 -0.28326757200E+03 -0.64471580431E+04  0.65000000000E+04  0.15050000000E+03 0. -1.
</event>
<event>
 4    1  0.5640637E-004  0.6500000E+04  0.7818608E-02  0.7223770E-01
         52   -1    0    0    0    0  0.00000000000E+00  0.00000000000E+00  0.64930732323E+04  0.65000000000E+04  0.30000000000E+03 0. -1.
        -52   -1    0    0    0    0 -0.00000000000E+00 -0.00000000000E+00 -0.64930732323E+04  0.65000000000E+04  0.30000000000E+03 0.  1.
     100001    1    1    2    0    0 -0.46303157071E+03  0.46580207528E+03 -0.64649810472E+04  0.65000000000E+04  0.15050000000E+03 0.  1.
     100001    1    1    2    0    0  0.46303157071E+03 -0.46580207528E+03  0.64649810472E+04  0.65000000000E+04  0.15050000000E+03 0. -1.
</event>
<event>
 4    1  0.5640637E-004  0.6500000E+04  0.7818608E-02  0.7223770E-01
         52   -1    0    0    0    0  0.00000000000E+00  0.00000000000E+00  0.64930732323E+04  0.65000000000E+04  0.30000000000E+03 0. -1.
        -52   -1    0    0    0    0 -0.00000000000E+00 -0.00000000000E+00 -0.64930732323E+04  0.65000000000E+04  0.30000000000E+03 0.  1.
     100001    1    1    2    0    0 -0.14666271591E+04 -0.26716946793E+04  0.57391987304E+04  0.65000000000E+04  0.15050000000E+03 0. -1.
     100001    1    1    2    0    0  0.14666271591E+04  0.26716946793E+04 -0.57391987304E+04  0.65000000000E+04  0.15050000000E+03 0.  1.
</event>
<event>
 4    1  0.5640637E-004  0.6500000E+04  0.7818608E-02  0.7223770E-01
         52   -1    0    0    0    0  0.00000000000E+00  0.00000000000E+00  0.64930732323E+04  0.65000000000E+04  0.30000000000E+03 0.  1.
        -52   -1    0    0    0    0 -0.00000000000E+00 -0.00000000000E+00 -0.64930732323E+04  0.65000000000E+04  0.30000000000E+03 0. -1.
     100001    1    1    2    0    0  0.14519247965E+04 -0.27479649649E+04 -0.57068338584E+04  0.65000000000E+04  0.15050000000E+03 0. -1.
     100001    1    1    2    0    0 -0.14519247965E+04  0.27479649649E+04  0.57068338584E+04  0.65000000000E+04  0.15050000000E+03 0.  1.
</event>
<event>
 4    1  0.5640637E-004  0.6500000E+04  0.7818608E-02  0.7223770E-01
         52   -1    0    0    0    0  0.00000000000E+00  0.00000000000E+00  0.64930732323E+04  0.65000000000E+04  0.30000000000E+03 0.  1.
        -52   -1    0    0    0    0 -0.00000000000E+00 -0.00000000000E+00 -0.64930732323E+04  0.65000000000E+04  0.30000000000E+03 0. -1.
     100001    1    1    2    0    0 -0.73661187139E+02  0.22758635064E+03  0.64938531114E+04  0.65000000000E+04  0.15050000000E+03 0.  1.
     100001    1    1    2    0    0  0.73661187139E+02 -0.22758635064E+03 -0.64938531114E+04  0.65000000000E+04  0.15050000000E+03 0. -1.
</event>
<event>
 4    1  0.5640637E-004  0.6500000E+04  0.7818608E-02  0.7223770E-01
         52   -1    0    0    0    0  0.00000000000E+00  0.00000000000E+00  0.64930732323E+04  0.65000000000E+04  0.30000000000E+03 0. -1.
        -52   -1    0    0    0    0 -0.00000000000E+00 -0.00000000000E+00 -0.64930732323E+04  0.65000000000E+04  0.30000000000E+03 0.  1.
     100001    1    1    2    0    0  0.14214979360E+03 -0.19393580741E+04 -0.62004865492E+04  0.65000000000E+04  0.15050000000E+03 0.  1.
     100001    1    1    2    0    0 -0.14214979360E+03  0.19393580741E+04  0.62004865492E+04  0.65000000000E+04  0.15050000000E+03 0. -1.
</event>
<event>
 4    1  0.5640637E-004  0.6500000E+04  0.7818608E-02  0.7223770E-01
         52   -1    0    0    0    0  0.00000000000E+00  0.00000000000E+00  0.64930732323E+04  0.65000000000E+04  0.30000000000E+03 0. -1.
        -52   -1    0    0    0    0 -0.00000000000E+00 -0.00000000000E+00 -0.64930732323E+04  0.65000000000E+04  0.30000000000E+03 0.  1.
     100001    1    1    2    0    0  0.47599375632E+04  0.90369081706E+03 -0.43305527420E+04  0.65000000000E+04  0.15050000000E+03 0.  1.
     100001    1    1    2    0    0 -0.47599375632E+04 -0.90369081706E+03  0.43305527420E+04  0.65000000000E+04  0.15050000000E+03 0. -1.
</event>
<event>
 4    1  0.5640637E-004  0.6500000E+04  0.7818608E-02  0.7223770E-01
         52   -1    0    0    0    0  0.00000000000E+00  0.00000000000E+00  0.64930732323E+04  0.65000000000E+04  0.30000000000E+03 0. -1.
        -52   -1    0    0    0    0 -0.00000000000E+00 -0.00000000000E+00 -0.64930732323E+04  0.65000000000E+04  0.30000000000E+03 0.  1.
     100001    1    1    2    0    0 -0.23299122729E+04  0.27576130127E+03  0.60599351692E+04  0.65000000000E+04  0.15050000000E+03 0. -1.
     100001    1    1    2    0    0  0.23299122729E+04 -0.27576130127E+03 -0.60599351692E+04  0.65000000000E+04  0.15050000000E+03 0.  1.
</event>
<event>
 4    1  0.5640637E-004  0.6500000E+04  0.7818608E-02  0.7223770E-01
         52   -1    0    0    0    0  0.00000000000E+00  0.00000000000E+00  0.64930732323E+04  0.65000000000E+04  0.30000000000E+03 0.  1.
        -52   -1    0    0    0    0 -0.00000000000E+00 -0.00000000000E+00 -0.64930732323E+04  0.65000000000E+04  0.30000000000E+03 0.  1.
     100001    1    1    2    0    0  0.60417035778E+02 -0.65041306420E+02 -0.64976510494E+04  0.65000000000E+04  0.15050000000E+03 0.  1.
     100001    1    1    2    0    0 -0.60417035778E+02  0.65041306420E+02  0.64976510494E+04  0.65000000000E+04  0.15050000000E+03 0.  1.
</event>
<event>
 4    1  0.5640637E-004  0.6500000E+04  0.7818608E-02  0.7223770E-01
         52   -1    0    0    0    0  0.00000000000E+00  0.00000000000E+00  0.64930732323E+04  0.65000000000E+04  0.30000000000E+03 0. -1.
        -52   -1    0    0    0    0 -0.00000000000E+00 -0.00000000000E+00 -0.64930732323E+04  0.65000000000E+04  0.30000000000E+03 0.  1.
     100001    1    1    2    0    0  0.45855695445E+03 -0.46774969410E+03  0.64651593556E+04  0.65000000000E+04  0.15050000000E+03 0. -1.
     100001    1    1    2    0    0 -0.45855695445E+03  0.46774969410E+03 -0.64651593556E+04  0.65000000000E+04  0.15050000000E+03 0.  1.
</event>
<event>
 4    1  0.8964370E-004  0.6500000E+04  0.7818608E-02  0.7223770E-01
         52   -1    0    0    0    0  0.00000000000E+00  0.00000000000E+00  0.64930732323E+04  0.65000000000E+04  0.30000000000E+03 0. -1.
        -52   -1    0    0    0    0 -0.00000000000E+00 -0.00000000000E+00 -0.64930732323E+04  0.65000000000E+04  0.30000000000E+03 0. -1.
     100001    1    1    2    0    0  0.16039788027E+02 -0.96048365703E+02  0.64975277750E+04  0.65000000000E+04  0.15050000000E+03 0. -1.
     100001    1    1    2    0    0 -0.16039788027E+02  0.96048365703E+02 -0.64975277750E+04  0.65000000000E+04  0.15050000000E+03 0. -1.
</event>
<event>
 4    1  0.5640637E-004  0.6500000E+04  0.7818608E-02  0.7223770E-01
         52   -1    0    0    0    0  0.00000000000E+00  0.00000000000E+00  0.64930732323E+04  0.65000000000E+04  0.30000000000E+03 0. -1.
        -52   -1    0    0    0    0 -0.00000000000E+00 -0.00000000000E+00 -0.64930732323E+04  0.65000000000E+04  0.30000000000E+03 0.  1.
     100001    1    1    2    0    0  0.49621237956E+03 -0.36835181993E+03 -0.64688051417E+04  0.65000000000E+04  0.15050000000E+03 0.  1.
     100001    1    1    2    0    0 -0.49621237956E+03  0.36835181993E+03  0.64688051417E+04  0.65000000000E+04  0.15050000000E+03 0. -1.
</event>
<event>
 4    1  0.5640637E-004  0.6500000E+04  0.7818608E-02  0.7223770E-01
         52   -1    0    0    0    0  0.00000000000E+00  0.00000000000E+00  0.64930732323E+04  0.65000000000E+04  0.30000000000E+03 0. -1.
        -52   -1    0    0    0    0 -0.00000000000E+00 -0.00000000000E+00 -0.64930732323E+04  0.65000000000E+04  0.30000000000E+03 0.  1.
     100001    1    1    2    0    0  0.25724925568E+04  0.19842399526E+04 -0.56278258329E+04  0.65000000000E+04  0.15050000000E+03 0.  1.
     100001    1    1    2    0    0 -0.25724925568E+04 -0.19842399526E+04  0.56278258329E+04  0.65000000000E+04  0.15050000000E+03 0. -1.
</event>
<event>
 4    1  0.5640637E-004  0.6500000E+04  0.7818608E-02  0.7223770E-01
         52   -1    0    0    0    0  0.00000000000E+00  0.00000000000E+00  0.64930732323E+04  0.65000000000E+04  0.30000000000E+03 0.  1.
        -52   -1    0    0    0    0 -0.00000000000E+00 -0.00000000000E+00 -0.64930732323E+04  0.65000000000E+04  0.30000000000E+03 0. -1.
     100001    1    1    2    0    0 -0.73239506153E+03  0.97923289619E+03  0.63821665725E+04  0.65000000000E+04  0.15050000000E+03 0.  1.
     100001    1    1    2    0    0  0.73239506153E+03 -0.97923289619E+03 -0.63821665725E+04  0.65000000000E+04  0.15050000000E+03 0. -1.
</event>
<event>
 4    1  0.5640637E-004  0.6500000E+04  0.7818608E-02  0.7223770E-01
         52   -1    0    0    0    0  0.00000000000E+00  0.00000000000E+00  0.64930732323E+04  0.65000000000E+04  0.30000000000E+03 0.  1.
        -52   -1    0    0    0    0 -0.00000000000E+00 -0.00000000000E+00 -0.64930732323E+04  0.65000000000E+04  0.30000000000E+03 0. -1.
     100001    1    1    2    0    0  0.48430543600E+04 -0.19222546979E+04  0.38829255843E+04  0.65000000000E+04  0.15050000000E+03 0.  1.
     100001    1    1    2    0    0 -0.48430543600E+04  0.19222546979E+04 -0.38829255843E+04  0.65000000000E+04  0.15050000000E+03 0. -1.
</event>
<event>
 4    1  0.5640637E-004  0.6500000E+04  0.7818608E-02  0.7223770E-01
         52   -1    0    0    0    0  0.00000000000E+00  0.00000000000E+00  0.64930732323E+04  0.65000000000E+04  0.30000000000E+03 0.  1.
        -52   -1    0    0    0    0 -0.00000000000E+00 -0.00000000000E+00 -0.64930732323E+04  0.65000000000E+04  0.30000000000E+03 0. -1.
     100001    1    1    2    0    0  0.14107415365E+04 -0.85264238863E+03 -0.62857107016E+04  0.65000000000E+04  0.15050000000E+03 0. -1.
     100001    1    1    2    0    0 -0.14107415365E+04  0.85264238863E+03  0.62857107016E+04  0.65000000000E+04  0.15050000000E+03 0.  1.
</event>
<event>
 4    1  0.5640637E-004  0.6500000E+04  0.7818608E-02  0.7223770E-01
         52   -1    0    0    0    0  0.00000000000E+00  0.00000000000E+00  0.64930732323E+04  0.65000000000E+04  0.30000000000E+03 0.  1.
        -52   -1    0    0    0    0 -0.00000000000E+00 -0.00000000000E+00 -0.64930732323E+04  0.65000000000E+04  0.30000000000E+03 0. -1.
     100001    1    1    2    0    0  0.37814238992E+03  0.81304459218E+03  0.64360948233E+04  0.65000000000E+04  0.15050000000E+03 0.  1.
     100001    1    1    2    0    0 -0.37814238992E+03 -0.81304459218E+03 -0.64360948233E+04  0.65000000000E+04  0.15050000000E+03 0. -1.
</event>
<event>
 4    1  0.5640637E-004  0.6500000E+04  0.7818608E-02  0.7223770E-01
         52   -1    0    0    0    0  0.00000000000E+00  0.00000000000E+00  0.64930732323E+04  0.65000000000E+04  0.30000000000E+03 0. -1.
        -52   -1    0    0    0    0 -0.00000000000E+00 -0.00000000000E+00 -0.64930732323E+04  0.65000000000E+04  0.30000000000E+03 0.  1.
     100001    1    1    2    0    0 -0.13792627796E+03 -0.93167151043E+03  0.64296434029E+04  0.65000000000E+04  0.15050000000E+03 0. -1.
     100001    1    1    2    0    0  0.13792627796E+03  0.93167151043E+03 -0.64296434029E+04  0.65000000000E+04  0.15050000000E+03 0.  1.
</event>
<event>
 4    1  0.5640637E-004  0.6500000E+04  0.7818608E-02  0.7223770E-01
         52   -1    0    0    0    0  0.00000000000E+00  0.00000000000E+00  0.64930732323E+04  0.65000000000E+04  0.30000000000E+03 0.  1.
        -52   -1    0    0    0    0 -0.00000000000E+00 -0.00000000000E+00 -0.64930732323E+04  0.65000000000E+04  0.30000000000E+03 0. -1.
     100001    1    1    2    0    0 -0.16957793963E+04 -0.56525694274E+04  0.27203199918E+04  0.65000000000E+04  0.15050000000E+03 0.  1.
     100001    1    1    2    0    0  0.16957793963E+04  0.56525694274E+04 -0.27203199918E+04  0.65000000000E+04  0.15050000000E+03 0. -1.
</event>
<event>
 4    1  0.5640637E-004  0.6500000E+04  0.7818608E-02  0.7223770E-01
         52   -1    0    0    0    0  0.00000000000E+00  0.00000000000E+00  0.64930732323E+04  0.65000000000E+04  0.30000000000E+03 0.  1.
        -52   -1    0    0    0    0 -0.00000000000E+00 -0.00000000000E+00 -0.64930732323E+04  0.65000000000E+04  0.30000000000E+03 0. -1.
     100001    1    1    2    0    0  0.10633337975E+04 -0.18100282862E+04  0.61498348423E+04  0.65000000000E+04  0.15050000000E+03 0.  1.
     100001    1    1    2    0    0 -0.10633337975E+04  0.18100282862E+04 -0.61498348423E+04  0.65000000000E+04  0.15050000000E+03 0. -1.
</event>
<event>
 4    1  0.5640637E-004  0.6500000E+04  0.7818608E-02  0.7223770E-01
         52   -1    0    0    0    0  0.00000000000E+00  0.00000000000E+00  0.64930732323E+04  0.65000000000E+04  0.30000000000E+03 0.  1.
        -52   -1    0    0    0    0 -0.00000000000E+00 -0.00000000000E+00 -0.64930732323E+04  0.65000000000E+04  0.30000000000E+03 0.  1.
     100001    1    1    2    0    0  0.25816166198E+03  0.23686351547E+03  0.64888055897E+04  0.65000000000E+04  0.15050000000E+03 0.  1.
     100001    1    1    2    0    0 -0.25816166198E+03 -0.23686351547E+03 -0.64888055897E+04  0.65000000000E+04  0.15050000000E+03 0.  1.
</event>
<event>
 4    1  0.5640637E-004  0.6500000E+04  0.7818608E-02  0.7223770E-01
         52   -1    0    0    0    0  0.00000000000E+00  0.00000000000E+00  0.64930732323E+04  0.65000000000E+04  0.30000000000E+03 0.  1.
        -52   -1    0    0    0    0 -0.00000000000E+00 -0.00000000000E+00 -0.64930732323E+04  0.65000000000E+04  0.30000000000E+03 0. -1.
     100001    1    1    2    0    0  0.28185490396E+03 -0.46874677980E+03 -0.64751976047E+04  0.65000000000E+04  0.15050000000E+03 0. -1.
     100001    1    1    2    0    0 -0.28185490396E+03  0.46874677980E+03  0.64751976047E+04  0.65000000000E+04  0.15050000000E+03 0.  1.
</event>
<event>
 4    1  0.5640637E-004  0.6500000E+04  0.7818608E-02  0.7223770E-01
         52   -1    0    0    0    0  0.00000000000E+00  0.00000000000E+00  0.64930732323E+04  0.65000000000E+04  0.30000000000E+03 0.  1.
        -52   -1    0    0    0    0 -0.00000000000E+00 -0.00000000000E+00 -0.64930732323E+04  0.65000000000E+04  0.30000000000E+03 0. -1.
     100001    1    1    2    0    0  0.44364103544E+04  0.28236478653E+04 -0.38174108569E+04  0.65000000000E+04  0.15050000000E+03 0. -1.
     100001    1    1    2    0    0 -0.44364103544E+04 -0.28236478653E+04  0.38174108569E+04  0.65000000000E+04  0.15050000000E+03 0.  1.
</event>
<event>
 4    1  0.5640637E-004  0.6500000E+04  0.7818608E-02  0.7223770E-01
         52   -1    0    0    0    0  0.00000000000E+00  0.00000000000E+00  0.64930732323E+04  0.65000000000E+04  0.30000000000E+03 0.  1.
        -52   -1    0    0    0    0 -0.00000000000E+00 -0.00000000000E+00 -0.64930732323E+04  0.65000000000E+04  0.30000000000E+03 0. -1.
     100001    1    1    2    0    0  0.62763295585E+03 -0.13171124003E+04 -0.63323488176E+04  0.65000000000E+04  0.15050000000E+03 0. -1.
     100001    1    1    2    0    0 -0.62763295585E+03  0.13171124003E+04  0.63323488176E+04  0.65000000000E+04  0.15050000000E+03 0.  1.
</event>
<event>
 4    1  0.5640637E-004  0.6500000E+04  0.7818608E-02  0.7223770E-01
         52   -1    0    0    0    0  0.00000000000E+00  0.00000000000E+00  0.64930732323E+04  0.65000000000E+04  0.30000000000E+03 0. -1.
        -52   -1    0    0    0    0 -0.00000000000E+00 -0.00000000000E+00 -0.64930732323E+04  0.65000000000E+04  0.30000000000E+03 0.  1.
     100001    1    1    2    0    0  0.40722708872E+03 -0.69650938800E+03  0.64479756917E+04  0.65000000000E+04  0.15050000000E+03 0. -1.
     100001    1    1    2    0    0 -0.40722708872E+03  0.69650938800E+03 -0.64479756917E+04  0.65000000000E+04  0.15050000000E+03 0.  1.
</event>
<event>
 4    1  0.5640637E-004  0.6500000E+04  0.7818608E-02  0.7223770E-01
         52   -1    0    0    0    0  0.00000000000E+00  0.00000000000E+00  0.64930732323E+04  0.65000000000E+04  0.30000000000E+03 0. -1.
        -52   -1    0    0    0    0 -0.00000000000E+00 -0.00000000000E+00 -0.64930732323E+04  0.65000000000E+04  0.30000000000E+03 0.  1.
     100001    1    1    2    0    0 -0.28235471406E+04 -0.83245541212E+03 -0.57932675824E+04  0.65000000000E+04  0.15050000000E+03 0.  1.
     100001    1    1    2    0    0  0.28235471406E+04  0.83245541212E+03  0.57932675824E+04  0.65000000000E+04  0.15050000000E+03 0. -1.
</event>
<event>
 4    1  0.5640637E-004  0.6500000E+04  0.7818608E-02  0.7223770E-01
         52   -1    0    0    0    0  0.00000000000E+00  0.00000000000E+00  0.64930732323E+04  0.65000000000E+04  0.30000000000E+03 0. -1.
        -52   -1    0    0    0    0 -0.00000000000E+00 -0.00000000000E+00 -0.64930732323E+04  0.65000000000E+04  0.30000000000E+03 0.  1.
     100001    1    1    2    0    0  0.51649341462E+04  0.38622575611E+04 -0.79609769928E+03  0.65000000000E+04  0.15050000000E+03 0.  1.
     100001    1    1    2    0    0 -0.51649341462E+04 -0.38622575611E+04  0.79609769928E+03  0.65000000000E+04  0.15050000000E+03 0. -1.
</event>
<event>
 4    1  0.5640637E-004  0.6500000E+04  0.7818608E-02  0.7223770E-01
         52   -1    0    0    0    0  0.00000000000E+00  0.00000000000E+00  0.64930732323E+04  0.65000000000E+04  0.30000000000E+03 0.  1.
        -52   -1    0    0    0    0 -0.00000000000E+00 -0.00000000000E+00 -0.64930732323E+04  0.65000000000E+04  0.30000000000E+03 0. -1.
     100001    1    1    2    0    0 -0.72688444400E+03 -0.90388844515E+03  0.63939013469E+04  0.65000000000E+04  0.15050000000E+03 0.  1.
     100001    1    1    2    0    0  0.72688444400E+03  0.90388844515E+03 -0.63939013469E+04  0.65000000000E+04  0.15050000000E+03 0. -1.
</event>
<event>
 4    1  0.5640637E-004  0.6500000E+04  0.7818608E-02  0.7223770E-01
         52   -1    0    0    0    0  0.00000000000E+00  0.00000000000E+00  0.64930732323E+04  0.65000000000E+04  0.30000000000E+03 0.  1.
        -52   -1    0    0    0    0 -0.00000000000E+00 -0.00000000000E+00 -0.64930732323E+04  0.65000000000E+04  0.30000000000E+03 0.  1.
     100001    1    1    2    0    0  0.25535860326E+03 -0.11746685690E+03  0.64921755422E+04  0.65000000000E+04  0.15050000000E+03 0.  1.
     100001    1    1    2    0    0 -0.25535860326E+03  0.11746685690E+03 -0.64921755422E+04  0.65000000000E+04  0.15050000000E+03 0.  1.
</event>
<event>
 4    1  0.5640637E-004  0.6500000E+04  0.7818608E-02  0.7223770E-01
         52   -1    0    0    0    0  0.00000000000E+00  0.00000000000E+00  0.64930732323E+04  0.65000000000E+04  0.30000000000E+03 0.  1.
        -52   -1    0    0    0    0 -0.00000000000E+00 -0.00000000000E+00 -0.64930732323E+04  0.65000000000E+04  0.30000000000E+03 0. -1.
     100001    1    1    2    0    0 -0.54358266403E+04 -0.32019548158E+04  0.15577624481E+04  0.65000000000E+04  0.15050000000E+03 0. -1.
     100001    1    1    2    0    0  0.54358266403E+04  0.32019548158E+04 -0.15577624481E+04  0.65000000000E+04  0.15050000000E+03 0.  1.
</event>
<event>
 4    1  0.5640637E-004  0.6500000E+04  0.7818608E-02  0.7223770E-01
         52   -1    0    0    0    0  0.00000000000E+00  0.00000000000E+00  0.64930732323E+04  0.65000000000E+04  0.30000000000E+03 0.  1.
        -52   -1    0    0    0    0 -0.00000000000E+00 -0.00000000000E+00 -0.64930732323E+04  0.65000000000E+04  0.30000000000E+03 0. -1.
     100001    1    1    2    0    0 -0.11549479283E+04 -0.43058013788E+03 -0.63802857129E+04  0.65000000000E+04  0.15050000000E+03 0. -1.
     100001    1    1    2    0    0  0.11549479283E+04  0.43058013788E+03  0.63802857129E+04  0.65000000000E+04  0.15050000000E+03 0.  1.
</event>
<event>
 4    1  0.5640637E-004  0.6500000E+04  0.7818608E-02  0.7223770E-01
         52   -1    0    0    0    0  0.00000000000E+00  0.00000000000E+00  0.64930732323E+04  0.65000000000E+04  0.30000000000E+03 0. -1.
        -52   -1    0    0    0    0 -0.00000000000E+00 -0.00000000000E+00 -0.64930732323E+04  0.65000000000E+04  0.30000000000E+03 0.  1.
     100001    1    1    2    0    0 -0.23301474116E+03 -0.52464777154E+03  0.64728508863E+04  0.65000000000E+04  0.15050000000E+03 0. -1.
     100001    1    1    2    0    0  0.23301474116E+03  0.52464777154E+03 -0.64728508863E+04  0.65000000000E+04  0.15050000000E+03 0.  1.
</event>
<event>
 4    1  0.5640637E-004  0.6500000E+04  0.7818608E-02  0.7223770E-01
         52   -1    0    0    0    0  0.00000000000E+00  0.00000000000E+00  0.64930732323E+04  0.65000000000E+04  0.30000000000E+03 0.  1.
        -52   -1    0    0    0    0 -0.00000000000E+00 -0.00000000000E+00 -0.64930732323E+04  0.65000000000E+04  0.30000000000E+03 0. -1.
     100001    1    1    2    0    0 -0.51243517188E+02 -0.49567918372E+03 -0.64791223170E+04  0.65000000000E+04  0.15050000000E+03 0. -1.
     100001    1    1    2    0    0  0.51243517188E+02  0.49567918372E+03  0.64791223170E+04  0.65000000000E+04  0.15050000000E+03 0.  1.
</event>
<event>
 4    1  0.5640637E-004  0.6500000E+04  0.7818608E-02  0.7223770E-01
         52   -1    0    0    0    0  0.00000000000E+00  0.00000000000E+00  0.64930732323E+04  0.65000000000E+04  0.30000000000E+03 0.  1.
        -52   -1    0    0    0    0 -0.00000000000E+00 -0.00000000000E+00 -0.64930732323E+04  0.65000000000E+04  0.30000000000E+03 0. -1.
     100001    1    1    2    0    0  0.49142058205E+04  0.28845361430E+04 -0.31236808645E+04  0.65000000000E+04  0.15050000000E+03 0. -1.
     100001    1    1    2    0    0 -0.49142058205E+04 -0.28845361430E+04  0.31236808645E+04  0.65000000000E+04  0.15050000000E+03 0.  1.
</event>
<event>
 4    1  0.5640637E-004  0.6500000E+04  0.7818608E-02  0.7223770E-01
         52   -1    0    0    0    0  0.00000000000E+00  0.00000000000E+00  0.64930732323E+04  0.65000000000E+04  0.30000000000E+03 0.  1.
        -52   -1    0    0    0    0 -0.00000000000E+00 -0.00000000000E+00 -0.64930732323E+04  0.65000000000E+04  0.30000000000E+03 0. -1.
     100001    1    1    2    0    0 -0.19939381124E+03 -0.59272494299E+03 -0.64680962423E+04  0.65000000000E+04  0.15050000000E+03 0. -1.
     100001    1    1    2    0    0  0.19939381124E+03  0.59272494299E+03  0.64680962423E+04  0.65000000000E+04  0.15050000000E+03 0.  1.
</event>
<event>
 4    1  0.5640637E-004  0.6500000E+04  0.7818608E-02  0.7223770E-01
         52   -1    0    0    0    0  0.00000000000E+00  0.00000000000E+00  0.64930732323E+04  0.65000000000E+04  0.30000000000E+03 0. -1.
        -52   -1    0    0    0    0 -0.00000000000E+00 -0.00000000000E+00 -0.64930732323E+04  0.65000000000E+04  0.30000000000E+03 0.  1.
     100001    1    1    2    0    0 -0.51447863127E+04  0.25676940379E+04  0.30274528691E+04  0.65000000000E+04  0.15050000000E+03 0.  1.
     100001    1    1    2    0    0  0.51447863127E+04 -0.25676940379E+04 -0.30274528691E+04  0.65000000000E+04  0.15050000000E+03 0. -1.
</event>
<event>
 4    1  0.5640637E-004  0.6500000E+04  0.7818608E-02  0.7223770E-01
         52   -1    0    0    0    0  0.00000000000E+00  0.00000000000E+00  0.64930732323E+04  0.65000000000E+04  0.30000000000E+03 0.  1.
        -52   -1    0    0    0    0 -0.00000000000E+00 -0.00000000000E+00 -0.64930732323E+04  0.65000000000E+04  0.30000000000E+03 0. -1.
     100001    1    1    2    0    0  0.84326814143E+03 -0.72358256581E+03 -0.64025523709E+04  0.65000000000E+04  0.15050000000E+03 0. -1.
     100001    1    1    2    0    0 -0.84326814143E+03  0.72358256581E+03  0.64025523709E+04  0.65000000000E+04  0.15050000000E+03 0.  1.
</event>
<event>
 4    1  0.5640637E-004  0.6500000E+04  0.7818608E-02  0.7223770E-01
         52   -1    0    0    0    0  0.00000000000E+00  0.00000000000E+00  0.64930732323E+04  0.65000000000E+04  0.30000000000E+03 0. -1.
        -52   -1    0    0    0    0 -0.00000000000E+00 -0.00000000000E+00 -0.64930732323E+04  0.65000000000E+04  0.30000000000E+03 0.  1.
     100001    1    1    2    0    0 -0.40363239683E+03  0.54961820637E+03 -0.64623796287E+04  0.65000000000E+04  0.15050000000E+03 0.  1.
     100001    1    1    2    0    0  0.40363239683E+03 -0.54961820637E+03  0.64623796287E+04  0.65000000000E+04  0.15050000000E+03 0. -1.
</event>
<event>
 4    1  0.5640637E-004  0.6500000E+04  0.7818608E-02  0.7223770E-01
         52   -1    0    0    0    0  0.00000000000E+00  0.00000000000E+00  0.64930732323E+04  0.65000000000E+04  0.30000000000E+03 0. -1.
        -52   -1    0    0    0    0 -0.00000000000E+00 -0.00000000000E+00 -0.64930732323E+04  0.65000000000E+04  0.30000000000E+03 0.  1.
     100001    1    1    2    0    0 -0.18238509217E+04  0.29551598089E+04 -0.54925356685E+04  0.65000000000E+04  0.15050000000E+03 0.  1.
     100001    1    1    2    0    0  0.18238509217E+04 -0.29551598089E+04  0.54925356685E+04  0.65000000000E+04  0.15050000000E+03 0. -1.
</event>
<event>
 4    1  0.5640637E-004  0.6500000E+04  0.7818608E-02  0.7223770E-01
         52   -1    0    0    0    0  0.00000000000E+00  0.00000000000E+00  0.64930732323E+04  0.65000000000E+04  0.30000000000E+03 0. -1.
        -52   -1    0    0    0    0 -0.00000000000E+00 -0.00000000000E+00 -0.64930732323E+04  0.65000000000E+04  0.30000000000E+03 0.  1.
     100001    1    1    2    0    0  0.77740469582E+03 -0.17641399929E+03 -0.64491759000E+04  0.65000000000E+04  0.15050000000E+03 0.  1.
     100001    1    1    2    0    0 -0.77740469582E+03  0.17641399929E+03  0.64491759000E+04  0.65000000000E+04  0.15050000000E+03 0. -1.
</event>
<event>
 4    1  0.5640637E-004  0.6500000E+04  0.7818608E-02  0.7223770E-01
         52   -1    0    0    0    0  0.00000000000E+00  0.00000000000E+00  0.64930732323E+04  0.65000000000E+04  0.30000000000E+03 0.  1.
        -52   -1    0    0    0    0 -0.00000000000E+00 -0.00000000000E+00 -0.64930732323E+04  0.65000000000E+04  0.30000000000E+03 0. -1.
     100001    1    1    2    0    0 -0.19733969947E+04 -0.46810517717E+03 -0.61736481593E+04  0.65000000000E+04  0.15050000000E+03 0. -1.
     100001    1    1    2    0    0  0.19733969947E+04  0.46810517717E+03  0.61736481593E+04  0.65000000000E+04  0.15050000000E+03 0.  1.
</event>
<event>
 4    1  0.5640637E-004  0.6500000E+04  0.7818608E-02  0.7223770E-01
         52   -1    0    0    0    0  0.00000000000E+00  0.00000000000E+00  0.64930732323E+04  0.65000000000E+04  0.30000000000E+03 0.  1.
        -52   -1    0    0    0    0 -0.00000000000E+00 -0.00000000000E+00 -0.64930732323E+04  0.65000000000E+04  0.30000000000E+03 0. -1.
     100001    1    1    2    0    0 -0.61339295975E+04 -0.20624638309E+04  0.59033921563E+03  0.65000000000E+04  0.15050000000E+03 0. -1.
     100001    1    1    2    0    0  0.61339295975E+04  0.20624638309E+04 -0.59033921563E+03  0.65000000000E+04  0.15050000000E+03 0.  1.
</event>
<event>
 4    1  0.5640637E-004  0.6500000E+04  0.7818608E-02  0.7223770E-01
         52   -1    0    0    0    0  0.00000000000E+00  0.00000000000E+00  0.64930732323E+04  0.65000000000E+04  0.30000000000E+03 0. -1.
        -52   -1    0    0    0    0 -0.00000000000E+00 -0.00000000000E+00 -0.64930732323E+04  0.65000000000E+04  0.30000000000E+03 0.  1.
     100001    1    1    2    0    0  0.12219409429E+04  0.44593034044E+03 -0.63667382712E+04  0.65000000000E+04  0.15050000000E+03 0.  1.
     100001    1    1    2    0    0 -0.12219409429E+04 -0.44593034044E+03  0.63667382712E+04  0.65000000000E+04  0.15050000000E+03 0. -1.
</event>
<event>
 4    1  0.5640637E-004  0.6500000E+04  0.7818608E-02  0.7223770E-01
         52   -1    0    0    0    0  0.00000000000E+00  0.00000000000E+00  0.64930732323E+04  0.65000000000E+04  0.30000000000E+03 0.  1.
        -52   -1    0    0    0    0 -0.00000000000E+00 -0.00000000000E+00 -0.64930732323E+04  0.65000000000E+04  0.30000000000E+03 0. -1.
     100001    1    1    2    0    0  0.27110904942E+04 -0.22853920467E+04  0.54455781397E+04  0.65000000000E+04  0.15050000000E+03 0.  1.
     100001    1    1    2    0    0 -0.27110904942E+04  0.22853920467E+04 -0.54455781397E+04  0.65000000000E+04  0.15050000000E+03 0. -1.
</event>
<event>
 4    1  0.5640637E-004  0.6500000E+04  0.7818608E-02  0.7223770E-01
         52   -1    0    0    0    0  0.00000000000E+00  0.00000000000E+00  0.64930732323E+04  0.65000000000E+04  0.30000000000E+03 0.  1.
        -52   -1    0    0    0    0 -0.00000000000E+00 -0.00000000000E+00 -0.64930732323E+04  0.65000000000E+04  0.30000000000E+03 0. -1.
     100001    1    1    2    0    0 -0.16968403781E+04  0.17394951557E+04  0.60267934330E+04  0.65000000000E+04  0.15050000000E+03 0.  1.
     100001    1    1    2    0    0  0.16968403781E+04 -0.17394951557E+04 -0.60267934330E+04  0.65000000000E+04  0.15050000000E+03 0. -1.
</event>
<event>
 4    1  0.5640637E-004  0.6500000E+04  0.7818608E-02  0.7223770E-01
         52   -1    0    0    0    0  0.00000000000E+00  0.00000000000E+00  0.64930732323E+04  0.65000000000E+04  0.30000000000E+03 0. -1.
        -52   -1    0    0    0    0 -0.00000000000E+00 -0.00000000000E+00 -0.64930732323E+04  0.65000000000E+04  0.30000000000E+03 0.  1.
     100001    1    1    2    0    0 -0.60137377299E+02 -0.79695777503E+03 -0.64489217355E+04  0.65000000000E+04  0.15050000000E+03 0.  1.
     100001    1    1    2    0    0  0.60137377299E+02  0.79695777503E+03  0.64489217355E+04  0.65000000000E+04  0.15050000000E+03 0. -1.
</event>
<event>
 4    1  0.5640637E-004  0.6500000E+04  0.7818608E-02  0.7223770E-01
         52   -1    0    0    0    0  0.00000000000E+00  0.00000000000E+00  0.64930732323E+04  0.65000000000E+04  0.30000000000E+03 0.  1.
        -52   -1    0    0    0    0 -0.00000000000E+00 -0.00000000000E+00 -0.64930732323E+04  0.65000000000E+04  0.30000000000E+03 0.  1.
     100001    1    1    2    0    0 -0.12858611067E+04  0.44015936094E+03  0.63545393776E+04  0.65000000000E+04  0.15050000000E+03 0.  1.
     100001    1    1    2    0    0  0.12858611067E+04 -0.44015936094E+03 -0.63545393776E+04  0.65000000000E+04  0.15050000000E+03 0.  1.
</event>
<event>
 4    1  0.5640637E-004  0.6500000E+04  0.7818608E-02  0.7223770E-01
         52   -1    0    0    0    0  0.00000000000E+00  0.00000000000E+00  0.64930732323E+04  0.65000000000E+04  0.30000000000E+03 0. -1.
        -52   -1    0    0    0    0 -0.00000000000E+00 -0.00000000000E+00 -0.64930732323E+04  0.65000000000E+04  0.30000000000E+03 0.  1.
     100001    1    1    2    0    0  0.77191228917E+03  0.78468453677E+02  0.64517705996E+04  0.65000000000E+04  0.15050000000E+03 0. -1.
     100001    1    1    2    0    0 -0.77191228917E+03 -0.78468453677E+02 -0.64517705996E+04  0.65000000000E+04  0.15050000000E+03 0.  1.
</event>
<event>
 4    1  0.5640637E-004  0.6500000E+04  0.7818608E-02  0.7223770E-01
         52   -1    0    0    0    0  0.00000000000E+00  0.00000000000E+00  0.64930732323E+04  0.65000000000E+04  0.30000000000E+03 0. -1.
        -52   -1    0    0    0    0 -0.00000000000E+00 -0.00000000000E+00 -0.64930732323E+04  0.65000000000E+04  0.30000000000E+03 0.  1.
     100001    1    1    2    0    0  0.10554316587E+04  0.24117351745E+03 -0.64074370148E+04  0.65000000000E+04  0.15050000000E+03 0.  1.
     100001    1    1    2    0    0 -0.10554316587E+04 -0.24117351745E+03  0.64074370148E+04  0.65000000000E+04  0.15050000000E+03 0. -1.
</event>
<event>
 4    1  0.5640637E-004  0.6500000E+04  0.7818608E-02  0.7223770E-01
         52   -1    0    0    0    0  0.00000000000E+00  0.00000000000E+00  0.64930732323E+04  0.65000000000E+04  0.30000000000E+03 0. -1.
        -52   -1    0    0    0    0 -0.00000000000E+00 -0.00000000000E+00 -0.64930732323E+04  0.65000000000E+04  0.30000000000E+03 0.  1.
     100001    1    1    2    0    0 -0.89390064933E+03  0.51010612985E+02  0.64362791500E+04  0.65000000000E+04  0.15050000000E+03 0. -1.
     100001    1    1    2    0    0  0.89390064933E+03 -0.51010612985E+02 -0.64362791500E+04  0.65000000000E+04  0.15050000000E+03 0.  1.
</event>
<event>
 4    1  0.5640637E-004  0.6500000E+04  0.7818608E-02  0.7223770E-01
         52   -1    0    0    0    0  0.00000000000E+00  0.00000000000E+00  0.64930732323E+04  0.65000000000E+04  0.30000000000E+03 0. -1.
        -52   -1    0    0    0    0 -0.00000000000E+00 -0.00000000000E+00 -0.64930732323E+04  0.65000000000E+04  0.30000000000E+03 0.  1.
     100001    1    1    2    0    0  0.44146688788E+03 -0.25321742741E+04 -0.59682954168E+04  0.65000000000E+04  0.15050000000E+03 0.  1.
     100001    1    1    2    0    0 -0.44146688788E+03  0.25321742741E+04  0.59682954168E+04  0.65000000000E+04  0.15050000000E+03 0. -1.
</event>
<event>
 4    1  0.6929541E-004  0.6500000E+04  0.7818608E-02  0.7223770E-01
         52   -1    0    0    0    0  0.00000000000E+00  0.00000000000E+00  0.64930732323E+04  0.65000000000E+04  0.30000000000E+03 0.  1.
        -52   -1    0    0    0    0 -0.00000000000E+00 -0.00000000000E+00 -0.64930732323E+04  0.65000000000E+04  0.30000000000E+03 0. -1.
     100001    1    1    2    0    0  0.87688413852E+02 -0.17220666133E+03  0.64953833881E+04  0.65000000000E+04  0.15050000000E+03 0.  1.
     100001    1    1    2    0    0 -0.87688413852E+02  0.17220666133E+03 -0.64953833881E+04  0.65000000000E+04  0.15050000000E+03 0. -1.
</event>
<event>
 4    1  0.5640637E-004  0.6500000E+04  0.7818608E-02  0.7223770E-01
         52   -1    0    0    0    0  0.00000000000E+00  0.00000000000E+00  0.64930732323E+04  0.65000000000E+04  0.30000000000E+03 0. -1.
        -52   -1    0    0    0    0 -0.00000000000E+00 -0.00000000000E+00 -0.64930732323E+04  0.65000000000E+04  0.30000000000E+03 0.  1.
     100001    1    1    2    0    0 -0.65125333210E+03  0.34636215305E+03 -0.64562568185E+04  0.65000000000E+04  0.15050000000E+03 0.  1.
     100001    1    1    2    0    0  0.65125333210E+03 -0.34636215305E+03  0.64562568185E+04  0.65000000000E+04  0.15050000000E+03 0. -1.
</event>
<event>
 4    1  0.5640637E-004  0.6500000E+04  0.7818608E-02  0.7223770E-01
         52   -1    0    0    0    0  0.00000000000E+00  0.00000000000E+00  0.64930732323E+04  0.65000000000E+04  0.30000000000E+03 0. -1.
        -52   -1    0    0    0    0 -0.00000000000E+00 -0.00000000000E+00 -0.64930732323E+04  0.65000000000E+04  0.30000000000E+03 0.  1.
     100001    1    1    2    0    0 -0.21573530760E+04 -0.32539920325E+03  0.61210532438E+04  0.65000000000E+04  0.15050000000E+03 0. -1.
     100001    1    1    2    0    0  0.21573530760E+04  0.32539920325E+03 -0.61210532438E+04  0.65000000000E+04  0.15050000000E+03 0.  1.
</event>
<event>
 4    1  0.5640637E-004  0.6500000E+04  0.7818608E-02  0.7223770E-01
         52   -1    0    0    0    0  0.00000000000E+00  0.00000000000E+00  0.64930732323E+04  0.65000000000E+04  0.30000000000E+03 0. -1.
        -52   -1    0    0    0    0 -0.00000000000E+00 -0.00000000000E+00 -0.64930732323E+04  0.65000000000E+04  0.30000000000E+03 0.  1.
     100001    1    1    2    0    0 -0.20254502870E+04 -0.18105903675E+04 -0.59031062506E+04  0.65000000000E+04  0.15050000000E+03 0.  1.
     100001    1    1    2    0    0  0.20254502870E+04  0.18105903675E+04  0.59031062506E+04  0.65000000000E+04  0.15050000000E+03 0. -1.
</event>
<event>
 4    1  0.5640637E-004  0.6500000E+04  0.7818608E-02  0.7223770E-01
         52   -1    0    0    0    0  0.00000000000E+00  0.00000000000E+00  0.64930732323E+04  0.65000000000E+04  0.30000000000E+03 0.  1.
        -52   -1    0    0    0    0 -0.00000000000E+00 -0.00000000000E+00 -0.64930732323E+04  0.65000000000E+04  0.30000000000E+03 0. -1.
     100001    1    1    2    0    0  0.60098591222E+03  0.29119980239E+04  0.57780994446E+04  0.65000000000E+04  0.15050000000E+03 0.  1.
     100001    1    1    2    0    0 -0.60098591222E+03 -0.29119980239E+04 -0.57780994446E+04  0.65000000000E+04  0.15050000000E+03 0. -1.
</event>
<event>
 4    1  0.6313222E-004  0.6500000E+04  0.7818608E-02  0.7223770E-01
         52   -1    0    0    0    0  0.00000000000E+00  0.00000000000E+00  0.64930732323E+04  0.65000000000E+04  0.30000000000E+03 0. -1.
        -52   -1    0    0    0    0 -0.00000000000E+00 -0.00000000000E+00 -0.64930732323E+04  0.65000000000E+04  0.30000000000E+03 0. -1.
     100001    1    1    2    0    0 -0.15842510725E+02 -0.22956003052E+03  0.64941820853E+04  0.65000000000E+04  0.15050000000E+03 0. -1.
     100001    1    1    2    0    0  0.15842510725E+02  0.22956003052E+03 -0.64941820853E+04  0.65000000000E+04  0.15050000000E+03 0. -1.
</event>
<event>
 4    1  0.5640637E-004  0.6500000E+04  0.7818608E-02  0.7223770E-01
         52   -1    0    0    0    0  0.00000000000E+00  0.00000000000E+00  0.64930732323E+04  0.65000000000E+04  0.30000000000E+03 0. -1.
        -52   -1    0    0    0    0 -0.00000000000E+00 -0.00000000000E+00 -0.64930732323E+04  0.65000000000E+04  0.30000000000E+03 0.  1.
     100001    1    1    2    0    0 -0.11801687749E+04 -0.19854713439E+04  0.60739159490E+04  0.65000000000E+04  0.15050000000E+03 0. -1.
     100001    1    1    2    0    0  0.11801687749E+04  0.19854713439E+04 -0.60739159490E+04  0.65000000000E+04  0.15050000000E+03 0.  1.
</event>
<event>
 4    1  0.5640637E-004  0.6500000E+04  0.7818608E-02  0.7223770E-01
         52   -1    0    0    0    0  0.00000000000E+00  0.00000000000E+00  0.64930732323E+04  0.65000000000E+04  0.30000000000E+03 0.  1.
        -52   -1    0    0    0    0 -0.00000000000E+00 -0.00000000000E+00 -0.64930732323E+04  0.65000000000E+04  0.30000000000E+03 0. -1.
     100001    1    1    2    0    0  0.11940330848E+04 -0.34420596558E+02  0.63875229913E+04  0.65000000000E+04  0.15050000000E+03 0.  1.
     100001    1    1    2    0    0 -0.11940330848E+04  0.34420596558E+02 -0.63875229913E+04  0.65000000000E+04  0.15050000000E+03 0. -1.
</event>
<event>
 4    1  0.5640637E-004  0.6500000E+04  0.7818608E-02  0.7223770E-01
         52   -1    0    0    0    0  0.00000000000E+00  0.00000000000E+00  0.64930732323E+04  0.65000000000E+04  0.30000000000E+03 0. -1.
        -52   -1    0    0    0    0 -0.00000000000E+00 -0.00000000000E+00 -0.64930732323E+04  0.65000000000E+04  0.30000000000E+03 0.  1.
     100001    1    1    2    0    0 -0.34783504026E+03 -0.10643067728E+04  0.64010633201E+04  0.65000000000E+04  0.15050000000E+03 0. -1.
     100001    1    1    2    0    0  0.34783504026E+03  0.10643067728E+04 -0.64010633201E+04  0.65000000000E+04  0.15050000000E+03 0.  1.
</event>
<event>
 4    1  0.5640637E-004  0.6500000E+04  0.7818608E-02  0.7223770E-01
         52   -1    0    0    0    0  0.00000000000E+00  0.00000000000E+00  0.64930732323E+04  0.65000000000E+04  0.30000000000E+03 0.  1.
        -52   -1    0    0    0    0 -0.00000000000E+00 -0.00000000000E+00 -0.64930732323E+04  0.65000000000E+04  0.30000000000E+03 0. -1.
     100001    1    1    2    0    0  0.43278718778E+03  0.51869124785E+03 -0.64630491557E+04  0.65000000000E+04  0.15050000000E+03 0. -1.
     100001    1    1    2    0    0 -0.43278718778E+03 -0.51869124785E+03  0.64630491557E+04  0.65000000000E+04  0.15050000000E+03 0.  1.
</event>
<event>
 4    1  0.5640637E-004  0.6500000E+04  0.7818608E-02  0.7223770E-01
         52   -1    0    0    0    0  0.00000000000E+00  0.00000000000E+00  0.64930732323E+04  0.65000000000E+04  0.30000000000E+03 0. -1.
        -52   -1    0    0    0    0 -0.00000000000E+00 -0.00000000000E+00 -0.64930732323E+04  0.65000000000E+04  0.30000000000E+03 0.  1.
     100001    1    1    2    0    0 -0.19970974321E+03 -0.17617138327E+04 -0.62517061783E+04  0.65000000000E+04  0.15050000000E+03 0.  1.
     100001    1    1    2    0    0  0.19970974321E+03  0.17617138327E+04  0.62517061783E+04  0.65000000000E+04  0.15050000000E+03 0. -1.
</event>
<event>
 4    1  0.5640637E-004  0.6500000E+04  0.7818608E-02  0.7223770E-01
         52   -1    0    0    0    0  0.00000000000E+00  0.00000000000E+00  0.64930732323E+04  0.65000000000E+04  0.30000000000E+03 0. -1.
        -52   -1    0    0    0    0 -0.00000000000E+00 -0.00000000000E+00 -0.64930732323E+04  0.65000000000E+04  0.30000000000E+03 0.  1.
     100001    1    1    2    0    0  0.23086511302E+04 -0.59668814690E+03  0.60449518579E+04  0.65000000000E+04  0.15050000000E+03 0. -1.
     100001    1    1    2    0    0 -0.23086511302E+04  0.59668814690E+03 -0.60449518579E+04  0.65000000000E+04  0.15050000000E+03 0.  1.
</event>
<event>
 4    1  0.5640637E-004  0.6500000E+04  0.7818608E-02  0.7223770E-01
         52   -1    0    0    0    0  0.00000000000E+00  0.00000000000E+00  0.64930732323E+04  0.65000000000E+04  0.30000000000E+03 0. -1.
        -52   -1    0    0    0    0 -0.00000000000E+00 -0.00000000000E+00 -0.64930732323E+04  0.65000000000E+04  0.30000000000E+03 0.  1.
     100001    1    1    2    0    0 -0.34003083048E+04 -0.15055109382E+04  0.53290421275E+04  0.65000000000E+04  0.15050000000E+03 0. -1.
     100001    1    1    2    0    0  0.34003083048E+04  0.15055109382E+04 -0.53290421275E+04  0.65000000000E+04  0.15050000000E+03 0.  1.
</event>
<event>
 4    1  0.5640637E-004  0.6500000E+04  0.7818608E-02  0.7223770E-01
         52   -1    0    0    0    0  0.00000000000E+00  0.00000000000E+00  0.64930732323E+04  0.65000000000E+04  0.30000000000E+03 0. -1.
        -52   -1    0    0    0    0 -0.00000000000E+00 -0.00000000000E+00 -0.64930732323E+04  0.65000000000E+04  0.30000000000E+03 0.  1.
     100001    1    1    2    0    0 -0.11050666699E+04  0.73176797673E+03  0.63616580412E+04  0.65000000000E+04  0.15050000000E+03 0. -1.
     100001    1    1    2    0    0  0.11050666699E+04 -0.73176797673E+03 -0.63616580412E+04  0.65000000000E+04  0.15050000000E+03 0.  1.
</event>
<event>
 4    1  0.5640637E-004  0.6500000E+04  0.7818608E-02  0.7223770E-01
         52   -1    0    0    0    0  0.00000000000E+00  0.00000000000E+00  0.64930732323E+04  0.65000000000E+04  0.30000000000E+03 0. -1.
        -52   -1    0    0    0    0 -0.00000000000E+00 -0.00000000000E+00 -0.64930732323E+04  0.65000000000E+04  0.30000000000E+03 0.  1.
     100001    1    1    2    0    0  0.20206841094E+04 -0.23335298218E+03 -0.61716879268E+04  0.65000000000E+04  0.15050000000E+03 0.  1.
     100001    1    1    2    0    0 -0.20206841094E+04  0.23335298218E+03  0.61716879268E+04  0.65000000000E+04  0.15050000000E+03 0. -1.
</event>
<event>
 4    1  0.5640637E-004  0.6500000E+04  0.7818608E-02  0.7223770E-01
         52   -1    0    0    0    0  0.00000000000E+00  0.00000000000E+00  0.64930732323E+04  0.65000000000E+04  0.30000000000E+03 0. -1.
        -52   -1    0    0    0    0 -0.00000000000E+00 -0.00000000000E+00 -0.64930732323E+04  0.65000000000E+04  0.30000000000E+03 0.  1.
     100001    1    1    2    0    0 -0.81847248966E+03 -0.54825704556E+04  0.33909989285E+04  0.65000000000E+04  0.15050000000E+03 0. -1.
     100001    1    1    2    0    0  0.81847248966E+03  0.54825704556E+04 -0.33909989285E+04  0.65000000000E+04  0.15050000000E+03 0.  1.
</event>
<event>
 4    1  0.5640637E-004  0.6500000E+04  0.7818608E-02  0.7223770E-01
         52   -1    0    0    0    0  0.00000000000E+00  0.00000000000E+00  0.64930732323E+04  0.65000000000E+04  0.30000000000E+03 0.  1.
        -52   -1    0    0    0    0 -0.00000000000E+00 -0.00000000000E+00 -0.64930732323E+04  0.65000000000E+04  0.30000000000E+03 0.  1.
     100001    1    1    2    0    0  0.77760469809E+03  0.62079974218E+01 -0.64515612176E+04  0.65000000000E+04  0.15050000000E+03 0.  1.
     100001    1    1    2    0    0 -0.77760469809E+03 -0.62079974218E+01  0.64515612176E+04  0.65000000000E+04  0.15050000000E+03 0.  1.
</event>
<event>
 4    1  0.5640637E-004  0.6500000E+04  0.7818608E-02  0.7223770E-01
         52   -1    0    0    0    0  0.00000000000E+00  0.00000000000E+00  0.64930732323E+04  0.65000000000E+04  0.30000000000E+03 0. -1.
        -52   -1    0    0    0    0 -0.00000000000E+00 -0.00000000000E+00 -0.64930732323E+04  0.65000000000E+04  0.30000000000E+03 0.  1.
     100001    1    1    2    0    0  0.50153524762E+04 -0.35406401778E+04  0.21301306112E+04  0.65000000000E+04  0.15050000000E+03 0. -1.
     100001    1    1    2    0    0 -0.50153524762E+04  0.35406401778E+04 -0.21301306112E+04  0.65000000000E+04  0.15050000000E+03 0.  1.
</event>
<event>
 4    1  0.5640637E-004  0.6500000E+04  0.7818608E-02  0.7223770E-01
         52   -1    0    0    0    0  0.00000000000E+00  0.00000000000E+00  0.64930732323E+04  0.65000000000E+04  0.30000000000E+03 0.  1.
        -52   -1    0    0    0    0 -0.00000000000E+00 -0.00000000000E+00 -0.64930732323E+04  0.65000000000E+04  0.30000000000E+03 0. -1.
     100001    1    1    2    0    0  0.19173920115E+04  0.30556553151E+04 -0.54049910471E+04  0.65000000000E+04  0.15050000000E+03 0. -1.
     100001    1    1    2    0    0 -0.19173920115E+04 -0.30556553151E+04  0.54049910471E+04  0.65000000000E+04  0.15050000000E+03 0.  1.
</event>
<event>
 4    1  0.5640637E-004  0.6500000E+04  0.7818608E-02  0.7223770E-01
         52   -1    0    0    0    0  0.00000000000E+00  0.00000000000E+00  0.64930732323E+04  0.65000000000E+04  0.30000000000E+03 0.  1.
        -52   -1    0    0    0    0 -0.00000000000E+00 -0.00000000000E+00 -0.64930732323E+04  0.65000000000E+04  0.30000000000E+03 0. -1.
     100001    1    1    2    0    0 -0.50135577506E+03  0.11166374723E+03  0.64779258520E+04  0.65000000000E+04  0.15050000000E+03 0.  1.
     100001    1    1    2    0    0  0.50135577506E+03 -0.11166374723E+03 -0.64779258520E+04  0.65000000000E+04  0.15050000000E+03 0. -1.
</event>
<event>
 4    1  0.5640637E-004  0.6500000E+04  0.7818608E-02  0.7223770E-01
         52   -1    0    0    0    0  0.00000000000E+00  0.00000000000E+00  0.64930732323E+04  0.65000000000E+04  0.30000000000E+03 0. -1.
        -52   -1    0    0    0    0 -0.00000000000E+00 -0.00000000000E+00 -0.64930732323E+04  0.65000000000E+04  0.30000000000E+03 0.  1.
     100001    1    1    2    0    0 -0.79667472200E+03 -0.13379695696E+04  0.63089219815E+04  0.65000000000E+04  0.15050000000E+03 0. -1.
     100001    1    1    2    0    0  0.79667472200E+03  0.13379695696E+04 -0.63089219815E+04  0.65000000000E+04  0.15050000000E+03 0.  1.
</event>
<event>
 4    1  0.5640637E-004  0.6500000E+04  0.7818608E-02  0.7223770E-01
         52   -1    0    0    0    0  0.00000000000E+00  0.00000000000E+00  0.64930732323E+04  0.65000000000E+04  0.30000000000E+03 0. -1.
        -52   -1    0    0    0    0 -0.00000000000E+00 -0.00000000000E+00 -0.64930732323E+04  0.65000000000E+04  0.30000000000E+03 0.  1.
     100001    1    1    2    0    0 -0.48346509193E+03  0.12189715647E+03  0.64791011983E+04  0.65000000000E+04  0.15050000000E+03 0. -1.
     100001    1    1    2    0    0  0.48346509193E+03 -0.12189715647E+03 -0.64791011983E+04  0.65000000000E+04  0.15050000000E+03 0.  1.
</event>
<event>
 4    1  0.5640637E-004  0.6500000E+04  0.7818608E-02  0.7223770E-01
         52   -1    0    0    0    0  0.00000000000E+00  0.00000000000E+00  0.64930732323E+04  0.65000000000E+04  0.30000000000E+03 0. -1.
        -52   -1    0    0    0    0 -0.00000000000E+00 -0.00000000000E+00 -0.64930732323E+04  0.65000000000E+04  0.30000000000E+03 0.  1.
     100001    1    1    2    0    0 -0.14932529913E+03 -0.22147096381E+03 -0.64927653829E+04  0.65000000000E+04  0.15050000000E+03 0.  1.
     100001    1    1    2    0    0  0.14932529913E+03  0.22147096381E+03  0.64927653829E+04  0.65000000000E+04  0.15050000000E+03 0. -1.
</event>
<event>
 4    1  0.5640637E-004  0.6500000E+04  0.7818608E-02  0.7223770E-01
         52   -1    0    0    0    0  0.00000000000E+00  0.00000000000E+00  0.64930732323E+04  0.65000000000E+04  0.30000000000E+03 0. -1.
        -52   -1    0    0    0    0 -0.00000000000E+00 -0.00000000000E+00 -0.64930732323E+04  0.65000000000E+04  0.30000000000E+03 0.  1.
     100001    1    1    2    0    0  0.12224142923E+04 -0.16904796707E+04 -0.61542937475E+04  0.65000000000E+04  0.15050000000E+03 0.  1.
     100001    1    1    2    0    0 -0.12224142923E+04  0.16904796707E+04  0.61542937475E+04  0.65000000000E+04  0.15050000000E+03 0. -1.
</event>
<event>
 4    1  0.5640637E-004  0.6500000E+04  0.7818608E-02  0.7223770E-01
         52   -1    0    0    0    0  0.00000000000E+00  0.00000000000E+00  0.64930732323E+04  0.65000000000E+04  0.30000000000E+03 0. -1.
        -52   -1    0    0    0    0 -0.00000000000E+00 -0.00000000000E+00 -0.64930732323E+04  0.65000000000E+04  0.30000000000E+03 0. -1.
     100001    1    1    2    0    0 -0.39622020224E+03  0.26332055613E+03 -0.64808195150E+04  0.65000000000E+04  0.15050000000E+03 0. -1.
     100001    1    1    2    0    0  0.39622020224E+03 -0.26332055613E+03  0.64808195150E+04  0.65000000000E+04  0.15050000000E+03 0. -1.
</event>
<event>
 4    1  0.5640637E-004  0.6500000E+04  0.7818608E-02  0.7223770E-01
         52   -1    0    0    0    0  0.00000000000E+00  0.00000000000E+00  0.64930732323E+04  0.65000000000E+04  0.30000000000E+03 0.  1.
        -52   -1    0    0    0    0 -0.00000000000E+00 -0.00000000000E+00 -0.64930732323E+04  0.65000000000E+04  0.30000000000E+03 0. -1.
     100001    1    1    2    0    0 -0.14448975786E+04 -0.61994338226E+04  0.13063847122E+04  0.65000000000E+04  0.15050000000E+03 0. -1.
     100001    1    1    2    0    0  0.14448975786E+04  0.61994338226E+04 -0.13063847122E+04  0.65000000000E+04  0.15050000000E+03 0.  1.
</event>
<event>
 4    1  0.5640637E-004  0.6500000E+04  0.7818608E-02  0.7223770E-01
         52   -1    0    0    0    0  0.00000000000E+00  0.00000000000E+00  0.64930732323E+04  0.65000000000E+04  0.30000000000E+03 0. -1.
        -52   -1    0    0    0    0 -0.00000000000E+00 -0.00000000000E+00 -0.64930732323E+04  0.65000000000E+04  0.30000000000E+03 0.  1.
     100001    1    1    2    0    0  0.27429266857E+04  0.10286143998E+04  0.58004875108E+04  0.65000000000E+04  0.15050000000E+03 0. -1.
     100001    1    1    2    0    0 -0.27429266857E+04 -0.10286143998E+04 -0.58004875108E+04  0.65000000000E+04  0.15050000000E+03 0.  1.
</event>
<event>
 4    1  0.5640637E-004  0.6500000E+04  0.7818608E-02  0.7223770E-01
         52   -1    0    0    0    0  0.00000000000E+00  0.00000000000E+00  0.64930732323E+04  0.65000000000E+04  0.30000000000E+03 0.  1.
        -52   -1    0    0    0    0 -0.00000000000E+00 -0.00000000000E+00 -0.64930732323E+04  0.65000000000E+04  0.30000000000E+03 0. -1.
     100001    1    1    2    0    0 -0.31256482066E+03 -0.15243293757E+04 -0.63092054125E+04  0.65000000000E+04  0.15050000000E+03 0. -1.
     100001    1    1    2    0    0  0.31256482066E+03  0.15243293757E+04  0.63092054125E+04  0.65000000000E+04  0.15050000000E+03 0.  1.
</event>
<event>
 4    1  0.5640637E-004  0.6500000E+04  0.7818608E-02  0.7223770E-01
         52   -1    0    0    0    0  0.00000000000E+00  0.00000000000E+00  0.64930732323E+04  0.65000000000E+04  0.30000000000E+03 0.  1.
        -52   -1    0    0    0    0 -0.00000000000E+00 -0.00000000000E+00 -0.64930732323E+04  0.65000000000E+04  0.30000000000E+03 0. -1.
     100001    1    1    2    0    0 -0.36371476166E+03 -0.14883015434E+04  0.63150629322E+04  0.65000000000E+04  0.15050000000E+03 0.  1.
     100001    1    1    2    0    0  0.36371476166E+03  0.14883015434E+04 -0.63150629322E+04  0.65000000000E+04  0.15050000000E+03 0. -1.
</event>
<event>
 4    1  0.5640637E-004  0.6500000E+04  0.7818608E-02  0.7223770E-01
         52   -1    0    0    0    0  0.00000000000E+00  0.00000000000E+00  0.64930732323E+04  0.65000000000E+04  0.30000000000E+03 0. -1.
        -52   -1    0    0    0    0 -0.00000000000E+00 -0.00000000000E+00 -0.64930732323E+04  0.65000000000E+04  0.30000000000E+03 0.  1.
     100001    1    1    2    0    0  0.21221729584E+04 -0.43893420506E+04  0.42962085666E+04  0.65000000000E+04  0.15050000000E+03 0. -1.
     100001    1    1    2    0    0 -0.21221729584E+04  0.43893420506E+04 -0.42962085666E+04  0.65000000000E+04  0.15050000000E+03 0.  1.
</event>
<event>
 4    1  0.5640637E-004  0.6500000E+04  0.7818608E-02  0.7223770E-01
         52   -1    0    0    0    0  0.00000000000E+00  0.00000000000E+00  0.64930732323E+04  0.65000000000E+04  0.30000000000E+03 0. -1.
        -52   -1    0    0    0    0 -0.00000000000E+00 -0.00000000000E+00 -0.64930732323E+04  0.65000000000E+04  0.30000000000E+03 0.  1.
     100001    1    1    2    0    0 -0.41940667160E+04 -0.21183426938E+04  0.44888504501E+04  0.65000000000E+04  0.15050000000E+03 0. -1.
     100001    1    1    2    0    0  0.41940667160E+04  0.21183426938E+04 -0.44888504501E+04  0.65000000000E+04  0.15050000000E+03 0.  1.
</event>
<event>
 4    1  0.5640637E-004  0.6500000E+04  0.7818608E-02  0.7223770E-01
         52   -1    0    0    0    0  0.00000000000E+00  0.00000000000E+00  0.64930732323E+04  0.65000000000E+04  0.30000000000E+03 0.  1.
        -52   -1    0    0    0    0 -0.00000000000E+00 -0.00000000000E+00 -0.64930732323E+04  0.65000000000E+04  0.30000000000E+03 0. -1.
     100001    1    1    2    0    0 -0.43641244428E+03 -0.38454064396E+02 -0.64834724657E+04  0.65000000000E+04  0.15050000000E+03 0. -1.
     100001    1    1    2    0    0  0.43641244428E+03  0.38454064396E+02  0.64834724657E+04  0.65000000000E+04  0.15050000000E+03 0.  1.
</event>
<event>
 4    1  0.5640637E-004  0.6500000E+04  0.7818608E-02  0.7223770E-01
         52   -1    0    0    0    0  0.00000000000E+00  0.00000000000E+00  0.64930732323E+04  0.65000000000E+04  0.30000000000E+03 0.  1.
        -52   -1    0    0    0    0 -0.00000000000E+00 -0.00000000000E+00 -0.64930732323E+04  0.65000000000E+04  0.30000000000E+03 0.  1.
     100001    1    1    2    0    0 -0.45362265813E+03 -0.22869725049E+03  0.64783696870E+04  0.65000000000E+04  0.15050000000E+03 0.  1.
     100001    1    1    2    0    0  0.45362265813E+03  0.22869725049E+03 -0.64783696870E+04  0.65000000000E+04  0.15050000000E+03 0.  1.
</event>
<event>
 4    1  0.5640637E-004  0.6500000E+04  0.7818608E-02  0.7223770E-01
         52   -1    0    0    0    0  0.00000000000E+00  0.00000000000E+00  0.64930732323E+04  0.65000000000E+04  0.30000000000E+03 0.  1.
        -52   -1    0    0    0    0 -0.00000000000E+00 -0.00000000000E+00 -0.64930732323E+04  0.65000000000E+04  0.30000000000E+03 0. -1.
     100001    1    1    2    0    0  0.78578815373E+02  0.34947302135E+02  0.64976883432E+04  0.65000000000E+04  0.15050000000E+03 0.  1.
     100001    1    1    2    0    0 -0.78578815373E+02 -0.34947302135E+02 -0.64976883432E+04  0.65000000000E+04  0.15050000000E+03 0. -1.
</event>
<event>
 4    1  0.5640637E-004  0.6500000E+04  0.7818608E-02  0.7223770E-01
         52   -1    0    0    0    0  0.00000000000E+00  0.00000000000E+00  0.64930732323E+04  0.65000000000E+04  0.30000000000E+03 0.  1.
        -52   -1    0    0    0    0 -0.00000000000E+00 -0.00000000000E+00 -0.64930732323E+04  0.65000000000E+04  0.30000000000E+03 0. -1.
     100001    1    1    2    0    0 -0.30737431051E+03  0.93326980744E+02 -0.64903128475E+04  0.65000000000E+04  0.15050000000E+03 0. -1.
     100001    1    1    2    0    0  0.30737431051E+03 -0.93326980744E+02  0.64903128475E+04  0.65000000000E+04  0.15050000000E+03 0.  1.
</event>
<event>
 4    1  0.5640637E-004  0.6500000E+04  0.7818608E-02  0.7223770E-01
         52   -1    0    0    0    0  0.00000000000E+00  0.00000000000E+00  0.64930732323E+04  0.65000000000E+04  0.30000000000E+03 0.  1.
        -52   -1    0    0    0    0 -0.00000000000E+00 -0.00000000000E+00 -0.64930732323E+04  0.65000000000E+04  0.30000000000E+03 0. -1.
     100001    1    1    2    0    0  0.10615746167E+04 -0.39004038177E+03  0.63990841207E+04  0.65000000000E+04  0.15050000000E+03 0.  1.
     100001    1    1    2    0    0 -0.10615746167E+04  0.39004038177E+03 -0.63990841207E+04  0.65000000000E+04  0.15050000000E+03 0. -1.
</event>
<event>
 4    1  0.5640637E-004  0.6500000E+04  0.7818608E-02  0.7223770E-01
         52   -1    0    0    0    0  0.00000000000E+00  0.00000000000E+00  0.64930732323E+04  0.65000000000E+04  0.30000000000E+03 0.  1.
        -52   -1    0    0    0    0 -0.00000000000E+00 -0.00000000000E+00 -0.64930732323E+04  0.65000000000E+04  0.30000000000E+03 0. -1.
     100001    1    1    2    0    0 -0.30165055692E+03 -0.55437360268E+02  0.64910155901E+04  0.65000000000E+04  0.15050000000E+03 0.  1.
     100001    1    1    2    0    0  0.30165055692E+03  0.55437360268E+02 -0.64910155901E+04  0.65000000000E+04  0.15050000000E+03 0. -1.
</event>
<event>
 4    1  0.5640637E-004  0.6500000E+04  0.7818608E-02  0.7223770E-01
         52   -1    0    0    0    0  0.00000000000E+00  0.00000000000E+00  0.64930732323E+04  0.65000000000E+04  0.30000000000E+03 0. -1.
        -52   -1    0    0    0    0 -0.00000000000E+00 -0.00000000000E+00 -0.64930732323E+04  0.65000000000E+04  0.30000000000E+03 0.  1.
     100001    1    1    2    0    0 -0.35280668618E+03  0.11707574540E+04 -0.63821786387E+04  0.65000000000E+04  0.15050000000E+03 0.  1.
     100001    1    1    2    0    0  0.35280668618E+03 -0.11707574540E+04  0.63821786387E+04  0.65000000000E+04  0.15050000000E+03 0. -1.
</event>
<event>
 4    1  0.5640637E-004  0.6500000E+04  0.7818608E-02  0.7223770E-01
         52   -1    0    0    0    0  0.00000000000E+00  0.00000000000E+00  0.64930732323E+04  0.65000000000E+04  0.30000000000E+03 0. -1.
        -52   -1    0    0    0    0 -0.00000000000E+00 -0.00000000000E+00 -0.64930732323E+04  0.65000000000E+04  0.30000000000E+03 0.  1.
     100001    1    1    2    0    0 -0.13086241332E+03 -0.35172037252E+04  0.54625545978E+04  0.65000000000E+04  0.15050000000E+03 0. -1.
     100001    1    1    2    0    0  0.13086241332E+03  0.35172037252E+04 -0.54625545978E+04  0.65000000000E+04  0.15050000000E+03 0.  1.
</event>
<event>
 4    1  0.5640637E-004  0.6500000E+04  0.7818608E-02  0.7223770E-01
         52   -1    0    0    0    0  0.00000000000E+00  0.00000000000E+00  0.64930732323E+04  0.65000000000E+04  0.30000000000E+03 0. -1.
        -52   -1    0    0    0    0 -0.00000000000E+00 -0.00000000000E+00 -0.64930732323E+04  0.65000000000E+04  0.30000000000E+03 0.  1.
     100001    1    1    2    0    0 -0.62252268877E+04  0.16535339602E+04 -0.86007289769E+03  0.65000000000E+04  0.15050000000E+03 0. -1.
     100001    1    1    2    0    0  0.62252268877E+04 -0.16535339602E+04  0.86007289769E+03  0.65000000000E+04  0.15050000000E+03 0.  1.
</event>
<event>
 4    1  0.5640637E-004  0.6500000E+04  0.7818608E-02  0.7223770E-01
         52   -1    0    0    0    0  0.00000000000E+00  0.00000000000E+00  0.64930732323E+04  0.65000000000E+04  0.30000000000E+03 0. -1.
        -52   -1    0    0    0    0 -0.00000000000E+00 -0.00000000000E+00 -0.64930732323E+04  0.65000000000E+04  0.30000000000E+03 0.  1.
     100001    1    1    2    0    0 -0.33099883268E+04  0.85388742754E+02  0.55914252019E+04  0.65000000000E+04  0.15050000000E+03 0. -1.
     100001    1    1    2    0    0  0.33099883268E+04 -0.85388742754E+02 -0.55914252019E+04  0.65000000000E+04  0.15050000000E+03 0.  1.
</event>
<event>
 4    1  0.5640637E-004  0.6500000E+04  0.7818608E-02  0.7223770E-01
         52   -1    0    0    0    0  0.00000000000E+00  0.00000000000E+00  0.64930732323E+04  0.65000000000E+04  0.30000000000E+03 0. -1.
        -52   -1    0    0    0    0 -0.00000000000E+00 -0.00000000000E+00 -0.64930732323E+04  0.65000000000E+04  0.30000000000E+03 0.  1.
     100001    1    1    2    0    0 -0.17194776408E+04  0.25367933585E+04  0.57302204014E+04  0.65000000000E+04  0.15050000000E+03 0. -1.
     100001    1    1    2    0    0  0.17194776408E+04 -0.25367933585E+04 -0.57302204014E+04  0.65000000000E+04  0.15050000000E+03 0.  1.
</event>
<event>
 4    1  0.5640637E-004  0.6500000E+04  0.7818608E-02  0.7223770E-01
         52   -1    0    0    0    0  0.00000000000E+00  0.00000000000E+00  0.64930732323E+04  0.65000000000E+04  0.30000000000E+03 0. -1.
        -52   -1    0    0    0    0 -0.00000000000E+00 -0.00000000000E+00 -0.64930732323E+04  0.65000000000E+04  0.30000000000E+03 0. -1.
     100001    1    1    2    0    0 -0.10501148832E+03  0.24014437547E+03  0.64929695068E+04  0.65000000000E+04  0.15050000000E+03 0. -1.
     100001    1    1    2    0    0  0.10501148832E+03 -0.24014437547E+03 -0.64929695068E+04  0.65000000000E+04  0.15050000000E+03 0. -1.
</event>
<event>
 4    1  0.5640637E-004  0.6500000E+04  0.7818608E-02  0.7223770E-01
         52   -1    0    0    0    0  0.00000000000E+00  0.00000000000E+00  0.64930732323E+04  0.65000000000E+04  0.30000000000E+03 0.  1.
        -52   -1    0    0    0    0 -0.00000000000E+00 -0.00000000000E+00 -0.64930732323E+04  0.65000000000E+04  0.30000000000E+03 0. -1.
     100001    1    1    2    0    0  0.22267581829E+04  0.18102041274E+04  0.58302708995E+04  0.65000000000E+04  0.15050000000E+03 0.  1.
     100001    1    1    2    0    0 -0.22267581829E+04 -0.18102041274E+04 -0.58302708995E+04  0.65000000000E+04  0.15050000000E+03 0. -1.
</event>
<event>
 4    1  0.5640637E-004  0.6500000E+04  0.7818608E-02  0.7223770E-01
         52   -1    0    0    0    0  0.00000000000E+00  0.00000000000E+00  0.64930732323E+04  0.65000000000E+04  0.30000000000E+03 0. -1.
        -52   -1    0    0    0    0 -0.00000000000E+00 -0.00000000000E+00 -0.64930732323E+04  0.65000000000E+04  0.30000000000E+03 0.  1.
     100001    1    1    2    0    0 -0.18165510896E+03 -0.39880733042E+02  0.64955954845E+04  0.65000000000E+04  0.15050000000E+03 0. -1.
     100001    1    1    2    0    0  0.18165510896E+03  0.39880733042E+02 -0.64955954845E+04  0.65000000000E+04  0.15050000000E+03 0.  1.
</event>
<event>
 4    1  0.5640637E-004  0.6500000E+04  0.7818608E-02  0.7223770E-01
         52   -1    0    0    0    0  0.00000000000E+00  0.00000000000E+00  0.64930732323E+04  0.65000000000E+04  0.30000000000E+03 0. -1.
        -52   -1    0    0    0    0 -0.00000000000E+00 -0.00000000000E+00 -0.64930732323E+04  0.65000000000E+04  0.30000000000E+03 0.  1.
     100001    1    1    2    0    0  0.96917526495E+03  0.46544571191E+03  0.64086979446E+04  0.65000000000E+04  0.15050000000E+03 0. -1.
     100001    1    1    2    0    0 -0.96917526495E+03 -0.46544571191E+03 -0.64086979446E+04  0.65000000000E+04  0.15050000000E+03 0.  1.
</event>
<event>
 4    1  0.5640637E-004  0.6500000E+04  0.7818608E-02  0.7223770E-01
         52   -1    0    0    0    0  0.00000000000E+00  0.00000000000E+00  0.64930732323E+04  0.65000000000E+04  0.30000000000E+03 0.  1.
        -52   -1    0    0    0    0 -0.00000000000E+00 -0.00000000000E+00 -0.64930732323E+04  0.65000000000E+04  0.30000000000E+03 0. -1.
     100001    1    1    2    0    0  0.39600599705E+03 -0.13334669844E+04  0.63476290693E+04  0.65000000000E+04  0.15050000000E+03 0.  1.
     100001    1    1    2    0    0 -0.39600599705E+03  0.13334669844E+04 -0.63476290693E+04  0.65000000000E+04  0.15050000000E+03 0. -1.
</event>
<event>
 4    1  0.5640637E-004  0.6500000E+04  0.7818608E-02  0.7223770E-01
         52   -1    0    0    0    0  0.00000000000E+00  0.00000000000E+00  0.64930732323E+04  0.65000000000E+04  0.30000000000E+03 0.  1.
        -52   -1    0    0    0    0 -0.00000000000E+00 -0.00000000000E+00 -0.64930732323E+04  0.65000000000E+04  0.30000000000E+03 0. -1.
     100001    1    1    2    0    0 -0.10657596083E+03  0.71960689803E+03  0.64574110313E+04  0.65000000000E+04  0.15050000000E+03 0.  1.
     100001    1    1    2    0    0  0.10657596083E+03 -0.71960689803E+03 -0.64574110313E+04  0.65000000000E+04  0.15050000000E+03 0. -1.
</event>
<event>
 4    1  0.5640637E-004  0.6500000E+04  0.7818608E-02  0.7223770E-01
         52   -1    0    0    0    0  0.00000000000E+00  0.00000000000E+00  0.64930732323E+04  0.65000000000E+04  0.30000000000E+03 0. -1.
        -52   -1    0    0    0    0 -0.00000000000E+00 -0.00000000000E+00 -0.64930732323E+04  0.65000000000E+04  0.30000000000E+03 0.  1.
     100001    1    1    2    0    0  0.89274066505E+02 -0.49636995072E+03  0.64786570185E+04  0.65000000000E+04  0.15050000000E+03 0. -1.
     100001    1    1    2    0    0 -0.89274066505E+02  0.49636995072E+03 -0.64786570185E+04  0.65000000000E+04  0.15050000000E+03 0.  1.
</event>
<event>
 4    1  0.5640637E-004  0.6500000E+04  0.7818608E-02  0.7223770E-01
         52   -1    0    0    0    0  0.00000000000E+00  0.00000000000E+00  0.64930732323E+04  0.65000000000E+04  0.30000000000E+03 0. -1.
        -52   -1    0    0    0    0 -0.00000000000E+00 -0.00000000000E+00 -0.64930732323E+04  0.65000000000E+04  0.30000000000E+03 0.  1.
     100001    1    1    2    0    0  0.50311782303E+04  0.35525518335E+04  0.20721898647E+04  0.65000000000E+04  0.15050000000E+03 0. -1.
     100001    1    1    2    0    0 -0.50311782303E+04 -0.35525518335E+04 -0.20721898647E+04  0.65000000000E+04  0.15050000000E+03 0.  1.
</event>
<event>
 4    1  0.5640637E-004  0.6500000E+04  0.7818608E-02  0.7223770E-01
         52   -1    0    0    0    0  0.00000000000E+00  0.00000000000E+00  0.64930732323E+04  0.65000000000E+04  0.30000000000E+03 0. -1.
        -52   -1    0    0    0    0 -0.00000000000E+00 -0.00000000000E+00 -0.64930732323E+04  0.65000000000E+04  0.30000000000E+03 0.  1.
     100001    1    1    2    0    0  0.52975239975E+02  0.65286926864E+03  0.64651608713E+04  0.65000000000E+04  0.15050000000E+03 0. -1.
     100001    1    1    2    0    0 -0.52975239975E+02 -0.65286926864E+03 -0.64651608713E+04  0.65000000000E+04  0.15050000000E+03 0.  1.
</event>
<event>
 4    1  0.5640637E-004  0.6500000E+04  0.7818608E-02  0.7223770E-01
         52   -1    0    0    0    0  0.00000000000E+00  0.00000000000E+00  0.64930732323E+04  0.65000000000E+04  0.30000000000E+03 0. -1.
        -52   -1    0    0    0    0 -0.00000000000E+00 -0.00000000000E+00 -0.64930732323E+04  0.65000000000E+04  0.30000000000E+03 0. -1.
     100001    1    1    2    0    0  0.34154395973E+03  0.16366902932E+03  0.64872112593E+04  0.65000000000E+04  0.15050000000E+03 0. -1.
     100001    1    1    2    0    0 -0.34154395973E+03 -0.16366902932E+03 -0.64872112593E+04  0.65000000000E+04  0.15050000000E+03 0. -1.
</event>
<event>
 4    1  0.5640637E-004  0.6500000E+04  0.7818608E-02  0.7223770E-01
         52   -1    0    0    0    0  0.00000000000E+00  0.00000000000E+00  0.64930732323E+04  0.65000000000E+04  0.30000000000E+03 0. -1.
        -52   -1    0    0    0    0 -0.00000000000E+00 -0.00000000000E+00 -0.64930732323E+04  0.65000000000E+04  0.30000000000E+03 0.  1.
     100001    1    1    2    0    0  0.71479804090E+03  0.78445436117E+03 -0.64110096604E+04  0.65000000000E+04  0.15050000000E+03 0.  1.
     100001    1    1    2    0    0 -0.71479804090E+03 -0.78445436117E+03  0.64110096604E+04  0.65000000000E+04  0.15050000000E+03 0. -1.
</event>
<event>
 4    1  0.5640637E-004  0.6500000E+04  0.7818608E-02  0.7223770E-01
         52   -1    0    0    0    0  0.00000000000E+00  0.00000000000E+00  0.64930732323E+04  0.65000000000E+04  0.30000000000E+03 0.  1.
        -52   -1    0    0    0    0 -0.00000000000E+00 -0.00000000000E+00 -0.64930732323E+04  0.65000000000E+04  0.30000000000E+03 0. -1.
     100001    1    1    2    0    0 -0.10834963216E+04  0.17909307231E+04 -0.61519064213E+04  0.65000000000E+04  0.15050000000E+03 0. -1.
     100001    1    1    2    0    0  0.10834963216E+04 -0.17909307231E+04  0.61519064213E+04  0.65000000000E+04  0.15050000000E+03 0.  1.
</event>
<event>
 4    1  0.5640637E-004  0.6500000E+04  0.7818608E-02  0.7223770E-01
         52   -1    0    0    0    0  0.00000000000E+00  0.00000000000E+00  0.64930732323E+04  0.65000000000E+04  0.30000000000E+03 0.  1.
        -52   -1    0    0    0    0 -0.00000000000E+00 -0.00000000000E+00 -0.64930732323E+04  0.65000000000E+04  0.30000000000E+03 0.  1.
     100001    1    1    2    0    0  0.39988716979E+03 -0.29405585341E+02  0.64858750615E+04  0.65000000000E+04  0.15050000000E+03 0.  1.
     100001    1    1    2    0    0 -0.39988716979E+03  0.29405585341E+02 -0.64858750615E+04  0.65000000000E+04  0.15050000000E+03 0.  1.
</event>
<event>
 4    1  0.5640637E-004  0.6500000E+04  0.7818608E-02  0.7223770E-01
         52   -1    0    0    0    0  0.00000000000E+00  0.00000000000E+00  0.64930732323E+04  0.65000000000E+04  0.30000000000E+03 0.  1.
        -52   -1    0    0    0    0 -0.00000000000E+00 -0.00000000000E+00 -0.64930732323E+04  0.65000000000E+04  0.30000000000E+03 0. -1.
     100001    1    1    2    0    0 -0.26158577737E+04  0.10637745324E+04 -0.58526081025E+04  0.65000000000E+04  0.15050000000E+03 0. -1.
     100001    1    1    2    0    0  0.26158577737E+04 -0.10637745324E+04  0.58526081025E+04  0.65000000000E+04  0.15050000000E+03 0.  1.
</event>
<event>
 4    1  0.5640637E-004  0.6500000E+04  0.7818608E-02  0.7223770E-01
         52   -1    0    0    0    0  0.00000000000E+00  0.00000000000E+00  0.64930732323E+04  0.65000000000E+04  0.30000000000E+03 0. -1.
        -52   -1    0    0    0    0 -0.00000000000E+00 -0.00000000000E+00 -0.64930732323E+04  0.65000000000E+04  0.30000000000E+03 0.  1.
     100001    1    1    2    0    0  0.10997433254E+04 -0.19869964236E+04 -0.60884940323E+04  0.65000000000E+04  0.15050000000E+03 0. -1.
     100001    1    1    2    0    0 -0.10997433254E+04  0.19869964236E+04  0.60884940323E+04  0.65000000000E+04  0.15050000000E+03 0.  1.
</event>
<event>
 4    1  0.5640637E-004  0.6500000E+04  0.7818608E-02  0.7223770E-01
         52   -1    0    0    0    0  0.00000000000E+00  0.00000000000E+00  0.64930732323E+04  0.65000000000E+04  0.30000000000E+03 0. -1.
        -52   -1    0    0    0    0 -0.00000000000E+00 -0.00000000000E+00 -0.64930732323E+04  0.65000000000E+04  0.30000000000E+03 0.  1.
     100001    1    1    2    0    0 -0.68253192657E+03 -0.44777753293E+03 -0.64467817708E+04  0.65000000000E+04  0.15050000000E+03 0.  1.
     100001    1    1    2    0    0  0.68253192657E+03  0.44777753293E+03  0.64467817708E+04  0.65000000000E+04  0.15050000000E+03 0. -1.
</event>
<event>
 4    1  0.5640637E-004  0.6500000E+04  0.7818608E-02  0.7223770E-01
         52   -1    0    0    0    0  0.00000000000E+00  0.00000000000E+00  0.64930732323E+04  0.65000000000E+04  0.30000000000E+03 0. -1.
        -52   -1    0    0    0    0 -0.00000000000E+00 -0.00000000000E+00 -0.64930732323E+04  0.65000000000E+04  0.30000000000E+03 0. -1.
     100001    1    1    2    0    0  0.28433250664E+03  0.18113703500E+03  0.64895064643E+04  0.65000000000E+04  0.15050000000E+03 0. -1.
     100001    1    1    2    0    0 -0.28433250664E+03 -0.18113703500E+03 -0.64895064643E+04  0.65000000000E+04  0.15050000000E+03 0. -1.
</event>
<event>
 4    1  0.1030486E-003  0.6500000E+04  0.7818608E-02  0.7223770E-01
         52   -1    0    0    0    0  0.00000000000E+00  0.00000000000E+00  0.64930732323E+04  0.65000000000E+04  0.30000000000E+03 0.  1.
        -52   -1    0    0    0    0 -0.00000000000E+00 -0.00000000000E+00 -0.64930732323E+04  0.65000000000E+04  0.30000000000E+03 0.  1.
     100001    1    1    2    0    0  0.43331049273E+02 -0.56135497891E+01 -0.64981105452E+04  0.65000000000E+04  0.15050000000E+03 0.  1.
     100001    1    1    2    0    0 -0.43331049273E+02  0.56135497891E+01  0.64981105452E+04  0.65000000000E+04  0.15050000000E+03 0.  1.
</event>
<event>
 4    1  0.5640637E-004  0.6500000E+04  0.7818608E-02  0.7223770E-01
         52   -1    0    0    0    0  0.00000000000E+00  0.00000000000E+00  0.64930732323E+04  0.65000000000E+04  0.30000000000E+03 0.  1.
        -52   -1    0    0    0    0 -0.00000000000E+00 -0.00000000000E+00 -0.64930732323E+04  0.65000000000E+04  0.30000000000E+03 0. -1.
     100001    1    1    2    0    0 -0.20385266458E+04  0.88670257707E+03  0.61061868137E+04  0.65000000000E+04  0.15050000000E+03 0.  1.
     100001    1    1    2    0    0  0.20385266458E+04 -0.88670257707E+03 -0.61061868137E+04  0.65000000000E+04  0.15050000000E+03 0. -1.
</event>
<event>
 4    1  0.5640637E-004  0.6500000E+04  0.7818608E-02  0.7223770E-01
         52   -1    0    0    0    0  0.00000000000E+00  0.00000000000E+00  0.64930732323E+04  0.65000000000E+04  0.30000000000E+03 0.  1.
        -52   -1    0    0    0    0 -0.00000000000E+00 -0.00000000000E+00 -0.64930732323E+04  0.65000000000E+04  0.30000000000E+03 0. -1.
     100001    1    1    2    0    0  0.61205968636E+03  0.57381766594E+03 -0.64438704190E+04  0.65000000000E+04  0.15050000000E+03 0. -1.
     100001    1    1    2    0    0 -0.61205968636E+03 -0.57381766594E+03  0.64438704190E+04  0.65000000000E+04  0.15050000000E+03 0.  1.
</event>
<event>
 4    1  0.5640637E-004  0.6500000E+04  0.7818608E-02  0.7223770E-01
         52   -1    0    0    0    0  0.00000000000E+00  0.00000000000E+00  0.64930732323E+04  0.65000000000E+04  0.30000000000E+03 0.  1.
        -52   -1    0    0    0    0 -0.00000000000E+00 -0.00000000000E+00 -0.64930732323E+04  0.65000000000E+04  0.30000000000E+03 0. -1.
     100001    1    1    2    0    0  0.18773364163E+04  0.18577372143E+03 -0.62183957621E+04  0.65000000000E+04  0.15050000000E+03 0. -1.
     100001    1    1    2    0    0 -0.18773364163E+04 -0.18577372143E+03  0.62183957621E+04  0.65000000000E+04  0.15050000000E+03 0.  1.
</event>
<event>
 4    1  0.5640637E-004  0.6500000E+04  0.7818608E-02  0.7223770E-01
         52   -1    0    0    0    0  0.00000000000E+00  0.00000000000E+00  0.64930732323E+04  0.65000000000E+04  0.30000000000E+03 0.  1.
        -52   -1    0    0    0    0 -0.00000000000E+00 -0.00000000000E+00 -0.64930732323E+04  0.65000000000E+04  0.30000000000E+03 0. -1.
     100001    1    1    2    0    0 -0.19559660861E+04  0.81906635328E+03  0.61425301569E+04  0.65000000000E+04  0.15050000000E+03 0.  1.
     100001    1    1    2    0    0  0.19559660861E+04 -0.81906635328E+03 -0.61425301569E+04  0.65000000000E+04  0.15050000000E+03 0. -1.
</event>
<event>
 4    1  0.5640637E-004  0.6500000E+04  0.7818608E-02  0.7223770E-01
         52   -1    0    0    0    0  0.00000000000E+00  0.00000000000E+00  0.64930732323E+04  0.65000000000E+04  0.30000000000E+03 0. -1.
        -52   -1    0    0    0    0 -0.00000000000E+00 -0.00000000000E+00 -0.64930732323E+04  0.65000000000E+04  0.30000000000E+03 0.  1.
     100001    1    1    2    0    0  0.17401320820E+04 -0.19325808615E+04  0.59552011974E+04  0.65000000000E+04  0.15050000000E+03 0. -1.
     100001    1    1    2    0    0 -0.17401320820E+04  0.19325808615E+04 -0.59552011974E+04  0.65000000000E+04  0.15050000000E+03 0.  1.
</event>
<event>
 4    1  0.5640637E-004  0.6500000E+04  0.7818608E-02  0.7223770E-01
         52   -1    0    0    0    0  0.00000000000E+00  0.00000000000E+00  0.64930732323E+04  0.65000000000E+04  0.30000000000E+03 0. -1.
        -52   -1    0    0    0    0 -0.00000000000E+00 -0.00000000000E+00 -0.64930732323E+04  0.65000000000E+04  0.30000000000E+03 0.  1.
     100001    1    1    2    0    0 -0.41721063306E+04 -0.26732320335E+04  0.42041299946E+04  0.65000000000E+04  0.15050000000E+03 0. -1.
     100001    1    1    2    0    0  0.41721063306E+04  0.26732320335E+04 -0.42041299946E+04  0.65000000000E+04  0.15050000000E+03 0.  1.
</event>
<event>
 4    1  0.5640637E-004  0.6500000E+04  0.7818608E-02  0.7223770E-01
         52   -1    0    0    0    0  0.00000000000E+00  0.00000000000E+00  0.64930732323E+04  0.65000000000E+04  0.30000000000E+03 0.  1.
        -52   -1    0    0    0    0 -0.00000000000E+00 -0.00000000000E+00 -0.64930732323E+04  0.65000000000E+04  0.30000000000E+03 0. -1.
     100001    1    1    2    0    0 -0.75264742463E+03 -0.51104197253E+03 -0.64342604631E+04  0.65000000000E+04  0.15050000000E+03 0. -1.
     100001    1    1    2    0    0  0.75264742463E+03  0.51104197253E+03  0.64342604631E+04  0.65000000000E+04  0.15050000000E+03 0.  1.
</event>
<event>
 4    1  0.5640637E-004  0.6500000E+04  0.7818608E-02  0.7223770E-01
         52   -1    0    0    0    0  0.00000000000E+00  0.00000000000E+00  0.64930732323E+04  0.65000000000E+04  0.30000000000E+03 0.  1.
        -52   -1    0    0    0    0 -0.00000000000E+00 -0.00000000000E+00 -0.64930732323E+04  0.65000000000E+04  0.30000000000E+03 0. -1.
     100001    1    1    2    0    0 -0.15467732563E+04  0.62426374241E+04 -0.92968824618E+03  0.65000000000E+04  0.15050000000E+03 0. -1.
     100001    1    1    2    0    0  0.15467732563E+04 -0.62426374241E+04  0.92968824618E+03  0.65000000000E+04  0.15050000000E+03 0.  1.
</event>
<event>
 4    1  0.5640637E-004  0.6500000E+04  0.7818608E-02  0.7223770E-01
         52   -1    0    0    0    0  0.00000000000E+00  0.00000000000E+00  0.64930732323E+04  0.65000000000E+04  0.30000000000E+03 0.  1.
        -52   -1    0    0    0    0 -0.00000000000E+00 -0.00000000000E+00 -0.64930732323E+04  0.65000000000E+04  0.30000000000E+03 0. -1.
     100001    1    1    2    0    0 -0.31811208471E+03  0.13200865025E+03 -0.64891238367E+04  0.65000000000E+04  0.15050000000E+03 0. -1.
     100001    1    1    2    0    0  0.31811208471E+03 -0.13200865025E+03  0.64891238367E+04  0.65000000000E+04  0.15050000000E+03 0.  1.
</event>
<event>
 4    1  0.5640637E-004  0.6500000E+04  0.7818608E-02  0.7223770E-01
         52   -1    0    0    0    0  0.00000000000E+00  0.00000000000E+00  0.64930732323E+04  0.65000000000E+04  0.30000000000E+03 0.  1.
        -52   -1    0    0    0    0 -0.00000000000E+00 -0.00000000000E+00 -0.64930732323E+04  0.65000000000E+04  0.30000000000E+03 0. -1.
     100001    1    1    2    0    0  0.22423852143E+04 -0.15478600269E+04 -0.58994226529E+04  0.65000000000E+04  0.15050000000E+03 0. -1.
     100001    1    1    2    0    0 -0.22423852143E+04  0.15478600269E+04  0.58994226529E+04  0.65000000000E+04  0.15050000000E+03 0.  1.
</event>
<event>
 4    1  0.5640637E-004  0.6500000E+04  0.7818608E-02  0.7223770E-01
         52   -1    0    0    0    0  0.00000000000E+00  0.00000000000E+00  0.64930732323E+04  0.65000000000E+04  0.30000000000E+03 0.  1.
        -52   -1    0    0    0    0 -0.00000000000E+00 -0.00000000000E+00 -0.64930732323E+04  0.65000000000E+04  0.30000000000E+03 0. -1.
     100001    1    1    2    0    0  0.25641819103E+03  0.15539397874E+04 -0.63045119239E+04  0.65000000000E+04  0.15050000000E+03 0. -1.
     100001    1    1    2    0    0 -0.25641819103E+03 -0.15539397874E+04  0.63045119239E+04  0.65000000000E+04  0.15050000000E+03 0.  1.
</event>
<event>
 4    1  0.5640637E-004  0.6500000E+04  0.7818608E-02  0.7223770E-01
         52   -1    0    0    0    0  0.00000000000E+00  0.00000000000E+00  0.64930732323E+04  0.65000000000E+04  0.30000000000E+03 0.  1.
        -52   -1    0    0    0    0 -0.00000000000E+00 -0.00000000000E+00 -0.64930732323E+04  0.65000000000E+04  0.30000000000E+03 0. -1.
     100001    1    1    2    0    0 -0.16861902949E+04 -0.10350992961E+04  0.61897238619E+04  0.65000000000E+04  0.15050000000E+03 0.  1.
     100001    1    1    2    0    0  0.16861902949E+04  0.10350992961E+04 -0.61897238619E+04  0.65000000000E+04  0.15050000000E+03 0. -1.
</event>
<event>
 4    1  0.5640637E-004  0.6500000E+04  0.7818608E-02  0.7223770E-01
         52   -1    0    0    0    0  0.00000000000E+00  0.00000000000E+00  0.64930732323E+04  0.65000000000E+04  0.30000000000E+03 0. -1.
        -52   -1    0    0    0    0 -0.00000000000E+00 -0.00000000000E+00 -0.64930732323E+04  0.65000000000E+04  0.30000000000E+03 0.  1.
     100001    1    1    2    0    0  0.13512180235E+04  0.45728853789E+04 -0.44147795998E+04  0.65000000000E+04  0.15050000000E+03 0.  1.
     100001    1    1    2    0    0 -0.13512180235E+04 -0.45728853789E+04  0.44147795998E+04  0.65000000000E+04  0.15050000000E+03 0. -1.
</event>
<event>
 4    1  0.5640637E-004  0.6500000E+04  0.7818608E-02  0.7223770E-01
         52   -1    0    0    0    0  0.00000000000E+00  0.00000000000E+00  0.64930732323E+04  0.65000000000E+04  0.30000000000E+03 0.  1.
        -52   -1    0    0    0    0 -0.00000000000E+00 -0.00000000000E+00 -0.64930732323E+04  0.65000000000E+04  0.30000000000E+03 0. -1.
     100001    1    1    2    0    0 -0.14587194884E+03  0.13710990309E+04  0.63502880700E+04  0.65000000000E+04  0.15050000000E+03 0.  1.
     100001    1    1    2    0    0  0.14587194884E+03 -0.13710990309E+04 -0.63502880700E+04  0.65000000000E+04  0.15050000000E+03 0. -1.
</event>
<event>
 4    1  0.5640637E-004  0.6500000E+04  0.7818608E-02  0.7223770E-01
         52   -1    0    0    0    0  0.00000000000E+00  0.00000000000E+00  0.64930732323E+04  0.65000000000E+04  0.30000000000E+03 0.  1.
        -52   -1    0    0    0    0 -0.00000000000E+00 -0.00000000000E+00 -0.64930732323E+04  0.65000000000E+04  0.30000000000E+03 0. -1.
     100001    1    1    2    0    0 -0.59668722514E+03  0.73958880984E+02 -0.64703820744E+04  0.65000000000E+04  0.15050000000E+03 0. -1.
     100001    1    1    2    0    0  0.59668722514E+03 -0.73958880984E+02  0.64703820744E+04  0.65000000000E+04  0.15050000000E+03 0.  1.
</event>
<event>
 4    1  0.5640637E-004  0.6500000E+04  0.7818608E-02  0.7223770E-01
         52   -1    0    0    0    0  0.00000000000E+00  0.00000000000E+00  0.64930732323E+04  0.65000000000E+04  0.30000000000E+03 0.  1.
        -52   -1    0    0    0    0 -0.00000000000E+00 -0.00000000000E+00 -0.64930732323E+04  0.65000000000E+04  0.30000000000E+03 0. -1.
     100001    1    1    2    0    0 -0.30804557149E+04 -0.12311880422E+03  0.57204006939E+04  0.65000000000E+04  0.15050000000E+03 0.  1.
     100001    1    1    2    0    0  0.30804557149E+04  0.12311880422E+03 -0.57204006939E+04  0.65000000000E+04  0.15050000000E+03 0. -1.
</event>
<event>
 4    1  0.5640637E-004  0.6500000E+04  0.7818608E-02  0.7223770E-01
         52   -1    0    0    0    0  0.00000000000E+00  0.00000000000E+00  0.64930732323E+04  0.65000000000E+04  0.30000000000E+03 0. -1.
        -52   -1    0    0    0    0 -0.00000000000E+00 -0.00000000000E+00 -0.64930732323E+04  0.65000000000E+04  0.30000000000E+03 0.  1.
     100001    1    1    2    0    0  0.91181486354E+03 -0.63666867539E+04  0.92803188667E+03  0.65000000000E+04  0.15050000000E+03 0. -1.
     100001    1    1    2    0    0 -0.91181486354E+03  0.63666867539E+04 -0.92803188667E+03  0.65000000000E+04  0.15050000000E+03 0.  1.
</event>
<event>
 4    1  0.5640637E-004  0.6500000E+04  0.7818608E-02  0.7223770E-01
         52   -1    0    0    0    0  0.00000000000E+00  0.00000000000E+00  0.64930732323E+04  0.65000000000E+04  0.30000000000E+03 0. -1.
        -52   -1    0    0    0    0 -0.00000000000E+00 -0.00000000000E+00 -0.64930732323E+04  0.65000000000E+04  0.30000000000E+03 0.  1.
     100001    1    1    2    0    0  0.78782339102E+03 -0.30755127386E+03 -0.64429881475E+04  0.65000000000E+04  0.15050000000E+03 0.  1.
     100001    1    1    2    0    0 -0.78782339102E+03  0.30755127386E+03  0.64429881475E+04  0.65000000000E+04  0.15050000000E+03 0. -1.
</event>
<event>
 4    1  0.5640637E-004  0.6500000E+04  0.7818608E-02  0.7223770E-01
         52   -1    0    0    0    0  0.00000000000E+00  0.00000000000E+00  0.64930732323E+04  0.65000000000E+04  0.30000000000E+03 0.  1.
        -52   -1    0    0    0    0 -0.00000000000E+00 -0.00000000000E+00 -0.64930732323E+04  0.65000000000E+04  0.30000000000E+03 0. -1.
     100001    1    1    2    0    0  0.45114392581E+02 -0.15267368496E+04 -0.63162005220E+04  0.65000000000E+04  0.15050000000E+03 0. -1.
     100001    1    1    2    0    0 -0.45114392581E+02  0.15267368496E+04  0.63162005220E+04  0.65000000000E+04  0.15050000000E+03 0.  1.
</event>
<event>
 4    1  0.5640637E-004  0.6500000E+04  0.7818608E-02  0.7223770E-01
         52   -1    0    0    0    0  0.00000000000E+00  0.00000000000E+00  0.64930732323E+04  0.65000000000E+04  0.30000000000E+03 0. -1.
        -52   -1    0    0    0    0 -0.00000000000E+00 -0.00000000000E+00 -0.64930732323E+04  0.65000000000E+04  0.30000000000E+03 0.  1.
     100001    1    1    2    0    0  0.64037380314E+04 -0.11005731058E+04 -0.90707295823E+02  0.65000000000E+04  0.15050000000E+03 0.  1.
     100001    1    1    2    0    0 -0.64037380314E+04  0.11005731058E+04  0.90707295823E+02  0.65000000000E+04  0.15050000000E+03 0. -1.
</event>
<event>
 4    1  0.5640637E-004  0.6500000E+04  0.7818608E-02  0.7223770E-01
         52   -1    0    0    0    0  0.00000000000E+00  0.00000000000E+00  0.64930732323E+04  0.65000000000E+04  0.30000000000E+03 0.  1.
        -52   -1    0    0    0    0 -0.00000000000E+00 -0.00000000000E+00 -0.64930732323E+04  0.65000000000E+04  0.30000000000E+03 0. -1.
     100001    1    1    2    0    0 -0.76266370316E+01 -0.83857534073E+03  0.64439182942E+04  0.65000000000E+04  0.15050000000E+03 0.  1.
     100001    1    1    2    0    0  0.76266370316E+01  0.83857534073E+03 -0.64439182942E+04  0.65000000000E+04  0.15050000000E+03 0. -1.
</event>
<event>
 4    1  0.5640637E-004  0.6500000E+04  0.7818608E-02  0.7223770E-01
         52   -1    0    0    0    0  0.00000000000E+00  0.00000000000E+00  0.64930732323E+04  0.65000000000E+04  0.30000000000E+03 0.  1.
        -52   -1    0    0    0    0 -0.00000000000E+00 -0.00000000000E+00 -0.64930732323E+04  0.65000000000E+04  0.30000000000E+03 0. -1.
     100001    1    1    2    0    0 -0.22953600088E+04  0.42492355765E+04  0.43477199996E+04  0.65000000000E+04  0.15050000000E+03 0.  1.
     100001    1    1    2    0    0  0.22953600088E+04 -0.42492355765E+04 -0.43477199996E+04  0.65000000000E+04  0.15050000000E+03 0. -1.
</event>
<event>
 4    1  0.5640637E-004  0.6500000E+04  0.7818608E-02  0.7223770E-01
         52   -1    0    0    0    0  0.00000000000E+00  0.00000000000E+00  0.64930732323E+04  0.65000000000E+04  0.30000000000E+03 0.  1.
        -52   -1    0    0    0    0 -0.00000000000E+00 -0.00000000000E+00 -0.64930732323E+04  0.65000000000E+04  0.30000000000E+03 0. -1.
     100001    1    1    2    0    0 -0.17671238711E+04 -0.14190641282E+04 -0.60902282366E+04  0.65000000000E+04  0.15050000000E+03 0. -1.
     100001    1    1    2    0    0  0.17671238711E+04  0.14190641282E+04  0.60902282366E+04  0.65000000000E+04  0.15050000000E+03 0.  1.
</event>
<event>
 4    1  0.5640637E-004  0.6500000E+04  0.7818608E-02  0.7223770E-01
         52   -1    0    0    0    0  0.00000000000E+00  0.00000000000E+00  0.64930732323E+04  0.65000000000E+04  0.30000000000E+03 0.  1.
        -52   -1    0    0    0    0 -0.00000000000E+00 -0.00000000000E+00 -0.64930732323E+04  0.65000000000E+04  0.30000000000E+03 0. -1.
     100001    1    1    2    0    0  0.78529609753E+03 -0.14559023152E+04 -0.62841871581E+04  0.65000000000E+04  0.15050000000E+03 0. -1.
     100001    1    1    2    0    0 -0.78529609753E+03  0.14559023152E+04  0.62841871581E+04  0.65000000000E+04  0.15050000000E+03 0.  1.
</event>
<event>
 4    1  0.5640637E-004  0.6500000E+04  0.7818608E-02  0.7223770E-01
         52   -1    0    0    0    0  0.00000000000E+00  0.00000000000E+00  0.64930732323E+04  0.65000000000E+04  0.30000000000E+03 0. -1.
        -52   -1    0    0    0    0 -0.00000000000E+00 -0.00000000000E+00 -0.64930732323E+04  0.65000000000E+04  0.30000000000E+03 0.  1.
     100001    1    1    2    0    0  0.83412005012E+02  0.23806221297E+04 -0.60459102262E+04  0.65000000000E+04  0.15050000000E+03 0.  1.
     100001    1    1    2    0    0 -0.83412005012E+02 -0.23806221297E+04  0.60459102262E+04  0.65000000000E+04  0.15050000000E+03 0. -1.
</event>
<event>
 4    1  0.5640637E-004  0.6500000E+04  0.7818608E-02  0.7223770E-01
         52   -1    0    0    0    0  0.00000000000E+00  0.00000000000E+00  0.64930732323E+04  0.65000000000E+04  0.30000000000E+03 0. -1.
        -52   -1    0    0    0    0 -0.00000000000E+00 -0.00000000000E+00 -0.64930732323E+04  0.65000000000E+04  0.30000000000E+03 0.  1.
     100001    1    1    2    0    0 -0.35296895390E+03 -0.12676204729E+04 -0.63636389750E+04  0.65000000000E+04  0.15050000000E+03 0.  1.
     100001    1    1    2    0    0  0.35296895390E+03  0.12676204729E+04  0.63636389750E+04  0.65000000000E+04  0.15050000000E+03 0. -1.
</event>
<event>
 4    1  0.5640637E-004  0.6500000E+04  0.7818608E-02  0.7223770E-01
         52   -1    0    0    0    0  0.00000000000E+00  0.00000000000E+00  0.64930732323E+04  0.65000000000E+04  0.30000000000E+03 0. -1.
        -52   -1    0    0    0    0 -0.00000000000E+00 -0.00000000000E+00 -0.64930732323E+04  0.65000000000E+04  0.30000000000E+03 0.  1.
     100001    1    1    2    0    0 -0.34260789001E+04 -0.15937100492E+04 -0.52867212334E+04  0.65000000000E+04  0.15050000000E+03 0.  1.
     100001    1    1    2    0    0  0.34260789001E+04  0.15937100492E+04  0.52867212334E+04  0.65000000000E+04  0.15050000000E+03 0. -1.
</event>
<event>
 4    1  0.5640637E-004  0.6500000E+04  0.7818608E-02  0.7223770E-01
         52   -1    0    0    0    0  0.00000000000E+00  0.00000000000E+00  0.64930732323E+04  0.65000000000E+04  0.30000000000E+03 0. -1.
        -52   -1    0    0    0    0 -0.00000000000E+00 -0.00000000000E+00 -0.64930732323E+04  0.65000000000E+04  0.30000000000E+03 0. -1.
     100001    1    1    2    0    0  0.65057761145E+02  0.23592948053E+03  0.64936472431E+04  0.65000000000E+04  0.15050000000E+03 0. -1.
     100001    1    1    2    0    0 -0.65057761145E+02 -0.23592948053E+03 -0.64936472431E+04  0.65000000000E+04  0.15050000000E+03 0. -1.
</event>
<event>
 4    1  0.5640637E-004  0.6500000E+04  0.7818608E-02  0.7223770E-01
         52   -1    0    0    0    0  0.00000000000E+00  0.00000000000E+00  0.64930732323E+04  0.65000000000E+04  0.30000000000E+03 0.  1.
        -52   -1    0    0    0    0 -0.00000000000E+00 -0.00000000000E+00 -0.64930732323E+04  0.65000000000E+04  0.30000000000E+03 0. -1.
     100001    1    1    2    0    0  0.12812522296E+04 -0.26852978016E+03 -0.63650321469E+04  0.65000000000E+04  0.15050000000E+03 0. -1.
     100001    1    1    2    0    0 -0.12812522296E+04  0.26852978016E+03  0.63650321469E+04  0.65000000000E+04  0.15050000000E+03 0.  1.
</event>
<event>
 4    1  0.5640637E-004  0.6500000E+04  0.7818608E-02  0.7223770E-01
         52   -1    0    0    0    0  0.00000000000E+00  0.00000000000E+00  0.64930732323E+04  0.65000000000E+04  0.30000000000E+03 0. -1.
        -52   -1    0    0    0    0 -0.00000000000E+00 -0.00000000000E+00 -0.64930732323E+04  0.65000000000E+04  0.30000000000E+03 0.  1.
     100001    1    1    2    0    0 -0.37361614722E+04  0.34349890797E+04  0.40582381924E+04  0.65000000000E+04  0.15050000000E+03 0. -1.
     100001    1    1    2    0    0  0.37361614722E+04 -0.34349890797E+04 -0.40582381924E+04  0.65000000000E+04  0.15050000000E+03 0.  1.
</event>
<event>
 4    1  0.5640637E-004  0.6500000E+04  0.7818608E-02  0.7223770E-01
         52   -1    0    0    0    0  0.00000000000E+00  0.00000000000E+00  0.64930732323E+04  0.65000000000E+04  0.30000000000E+03 0. -1.
        -52   -1    0    0    0    0 -0.00000000000E+00 -0.00000000000E+00 -0.64930732323E+04  0.65000000000E+04  0.30000000000E+03 0.  1.
     100001    1    1    2    0    0 -0.60436722712E+03  0.19431241119E+04 -0.61714146426E+04  0.65000000000E+04  0.15050000000E+03 0.  1.
     100001    1    1    2    0    0  0.60436722712E+03 -0.19431241119E+04  0.61714146426E+04  0.65000000000E+04  0.15050000000E+03 0. -1.
</event>
<event>
 4    1  0.5640637E-004  0.6500000E+04  0.7818608E-02  0.7223770E-01
         52   -1    0    0    0    0  0.00000000000E+00  0.00000000000E+00  0.64930732323E+04  0.65000000000E+04  0.30000000000E+03 0.  1.
        -52   -1    0    0    0    0 -0.00000000000E+00 -0.00000000000E+00 -0.64930732323E+04  0.65000000000E+04  0.30000000000E+03 0. -1.
     100001    1    1    2    0    0  0.22391183099E+04 -0.55631750069E+04  0.25029548111E+04  0.65000000000E+04  0.15050000000E+03 0.  1.
     100001    1    1    2    0    0 -0.22391183099E+04  0.55631750069E+04 -0.25029548111E+04  0.65000000000E+04  0.15050000000E+03 0. -1.
</event>
<event>
 4    1  0.5640637E-004  0.6500000E+04  0.7818608E-02  0.7223770E-01
         52   -1    0    0    0    0  0.00000000000E+00  0.00000000000E+00  0.64930732323E+04  0.65000000000E+04  0.30000000000E+03 0.  1.
        -52   -1    0    0    0    0 -0.00000000000E+00 -0.00000000000E+00 -0.64930732323E+04  0.65000000000E+04  0.30000000000E+03 0. -1.
     100001    1    1    2    0    0 -0.31973079322E+02  0.26274719658E+03 -0.64928646515E+04  0.65000000000E+04  0.15050000000E+03 0. -1.
     100001    1    1    2    0    0  0.31973079322E+02 -0.26274719658E+03  0.64928646515E+04  0.65000000000E+04  0.15050000000E+03 0.  1.
</event>
<event>
 4    1  0.5640637E-004  0.6500000E+04  0.7818608E-02  0.7223770E-01
         52   -1    0    0    0    0  0.00000000000E+00  0.00000000000E+00  0.64930732323E+04  0.65000000000E+04  0.30000000000E+03 0. -1.
        -52   -1    0    0    0    0 -0.00000000000E+00 -0.00000000000E+00 -0.64930732323E+04  0.65000000000E+04  0.30000000000E+03 0.  1.
     100001    1    1    2    0    0  0.44196579813E+03 -0.18740572969E+03  0.64805011439E+04  0.65000000000E+04  0.15050000000E+03 0. -1.
     100001    1    1    2    0    0 -0.44196579813E+03  0.18740572969E+03 -0.64805011439E+04  0.65000000000E+04  0.15050000000E+03 0.  1.
</event>
<event>
 4    1  0.5640637E-004  0.6500000E+04  0.7818608E-02  0.7223770E-01
         52   -1    0    0    0    0  0.00000000000E+00  0.00000000000E+00  0.64930732323E+04  0.65000000000E+04  0.30000000000E+03 0.  1.
        -52   -1    0    0    0    0 -0.00000000000E+00 -0.00000000000E+00 -0.64930732323E+04  0.65000000000E+04  0.30000000000E+03 0. -1.
     100001    1    1    2    0    0  0.14887260050E+04  0.26463362913E+03 -0.63198903214E+04  0.65000000000E+04  0.15050000000E+03 0. -1.
     100001    1    1    2    0    0 -0.14887260050E+04 -0.26463362913E+03  0.63198903214E+04  0.65000000000E+04  0.15050000000E+03 0.  1.
</event>
<event>
 4    1  0.5640637E-004  0.6500000E+04  0.7818608E-02  0.7223770E-01
         52   -1    0    0    0    0  0.00000000000E+00  0.00000000000E+00  0.64930732323E+04  0.65000000000E+04  0.30000000000E+03 0. -1.
        -52   -1    0    0    0    0 -0.00000000000E+00 -0.00000000000E+00 -0.64930732323E+04  0.65000000000E+04  0.30000000000E+03 0.  1.
     100001    1    1    2    0    0 -0.10099183753E+04 -0.15804921577E+04 -0.62216926286E+04  0.65000000000E+04  0.15050000000E+03 0.  1.
     100001    1    1    2    0    0  0.10099183753E+04  0.15804921577E+04  0.62216926286E+04  0.65000000000E+04  0.15050000000E+03 0. -1.
</event>
<event>
 4    1  0.5640637E-004  0.6500000E+04  0.7818608E-02  0.7223770E-01
         52   -1    0    0    0    0  0.00000000000E+00  0.00000000000E+00  0.64930732323E+04  0.65000000000E+04  0.30000000000E+03 0. -1.
        -52   -1    0    0    0    0 -0.00000000000E+00 -0.00000000000E+00 -0.64930732323E+04  0.65000000000E+04  0.30000000000E+03 0.  1.
     100001    1    1    2    0    0 -0.42986081978E+03 -0.37195594742E+04  0.53110683241E+04  0.65000000000E+04  0.15050000000E+03 0. -1.
     100001    1    1    2    0    0  0.42986081978E+03  0.37195594742E+04 -0.53110683241E+04  0.65000000000E+04  0.15050000000E+03 0.  1.
</event>
<event>
 4    1  0.5640637E-004  0.6500000E+04  0.7818608E-02  0.7223770E-01
         52   -1    0    0    0    0  0.00000000000E+00  0.00000000000E+00  0.64930732323E+04  0.65000000000E+04  0.30000000000E+03 0.  1.
        -52   -1    0    0    0    0 -0.00000000000E+00 -0.00000000000E+00 -0.64930732323E+04  0.65000000000E+04  0.30000000000E+03 0. -1.
     100001    1    1    2    0    0  0.88583083529E+03  0.11466695156E+03  0.64365755625E+04  0.65000000000E+04  0.15050000000E+03 0.  1.
     100001    1    1    2    0    0 -0.88583083529E+03 -0.11466695156E+03 -0.64365755625E+04  0.65000000000E+04  0.15050000000E+03 0. -1.
</event>
<event>
 4    1  0.5640637E-004  0.6500000E+04  0.7818608E-02  0.7223770E-01
         52   -1    0    0    0    0  0.00000000000E+00  0.00000000000E+00  0.64930732323E+04  0.65000000000E+04  0.30000000000E+03 0. -1.
        -52   -1    0    0    0    0 -0.00000000000E+00 -0.00000000000E+00 -0.64930732323E+04  0.65000000000E+04  0.30000000000E+03 0.  1.
     100001    1    1    2    0    0 -0.28217689913E+04 -0.34457709568E+03  0.58434780854E+04  0.65000000000E+04  0.15050000000E+03 0. -1.
     100001    1    1    2    0    0  0.28217689913E+04  0.34457709568E+03 -0.58434780854E+04  0.65000000000E+04  0.15050000000E+03 0.  1.
</event>
<event>
 4    1  0.5640637E-004  0.6500000E+04  0.7818608E-02  0.7223770E-01
         52   -1    0    0    0    0  0.00000000000E+00  0.00000000000E+00  0.64930732323E+04  0.65000000000E+04  0.30000000000E+03 0. -1.
        -52   -1    0    0    0    0 -0.00000000000E+00 -0.00000000000E+00 -0.64930732323E+04  0.65000000000E+04  0.30000000000E+03 0.  1.
     100001    1    1    2    0    0  0.46901128633E+04 -0.14613295762E+04 -0.42537873653E+04  0.65000000000E+04  0.15050000000E+03 0.  1.
     100001    1    1    2    0    0 -0.46901128633E+04  0.14613295762E+04  0.42537873653E+04  0.65000000000E+04  0.15050000000E+03 0. -1.
</event>
<event>
 4    1  0.5640637E-004  0.6500000E+04  0.7818608E-02  0.7223770E-01
         52   -1    0    0    0    0  0.00000000000E+00  0.00000000000E+00  0.64930732323E+04  0.65000000000E+04  0.30000000000E+03 0.  1.
        -52   -1    0    0    0    0 -0.00000000000E+00 -0.00000000000E+00 -0.64930732323E+04  0.65000000000E+04  0.30000000000E+03 0. -1.
     100001    1    1    2    0    0  0.26749939420E+03 -0.47725154590E+03  0.64751853090E+04  0.65000000000E+04  0.15050000000E+03 0.  1.
     100001    1    1    2    0    0 -0.26749939420E+03  0.47725154590E+03 -0.64751853090E+04  0.65000000000E+04  0.15050000000E+03 0. -1.
</event>
<event>
 4    1  0.5640637E-004  0.6500000E+04  0.7818608E-02  0.7223770E-01
         52   -1    0    0    0    0  0.00000000000E+00  0.00000000000E+00  0.64930732323E+04  0.65000000000E+04  0.30000000000E+03 0. -1.
        -52   -1    0    0    0    0 -0.00000000000E+00 -0.00000000000E+00 -0.64930732323E+04  0.65000000000E+04  0.30000000000E+03 0.  1.
     100001    1    1    2    0    0 -0.28495913472E+04  0.58031303532E+04 -0.65639698978E+03  0.65000000000E+04  0.15050000000E+03 0.  1.
     100001    1    1    2    0    0  0.28495913472E+04 -0.58031303532E+04  0.65639698978E+03  0.65000000000E+04  0.15050000000E+03 0. -1.
</event>
<event>
 4    1  0.5640637E-004  0.6500000E+04  0.7818608E-02  0.7223770E-01
         52   -1    0    0    0    0  0.00000000000E+00  0.00000000000E+00  0.64930732323E+04  0.65000000000E+04  0.30000000000E+03 0. -1.
        -52   -1    0    0    0    0 -0.00000000000E+00 -0.00000000000E+00 -0.64930732323E+04  0.65000000000E+04  0.30000000000E+03 0.  1.
     100001    1    1    2    0    0 -0.90173981130E+03  0.39131471020E+03 -0.64234794201E+04  0.65000000000E+04  0.15050000000E+03 0.  1.
     100001    1    1    2    0    0  0.90173981130E+03 -0.39131471020E+03  0.64234794201E+04  0.65000000000E+04  0.15050000000E+03 0. -1.
</event>
<event>
 4    1  0.5640637E-004  0.6500000E+04  0.7818608E-02  0.7223770E-01
         52   -1    0    0    0    0  0.00000000000E+00  0.00000000000E+00  0.64930732323E+04  0.65000000000E+04  0.30000000000E+03 0. -1.
        -52   -1    0    0    0    0 -0.00000000000E+00 -0.00000000000E+00 -0.64930732323E+04  0.65000000000E+04  0.30000000000E+03 0.  1.
     100001    1    1    2    0    0 -0.89241091243E+03 -0.44843664834E+03 -0.64210479741E+04  0.65000000000E+04  0.15050000000E+03 0.  1.
     100001    1    1    2    0    0  0.89241091243E+03  0.44843664834E+03  0.64210479741E+04  0.65000000000E+04  0.15050000000E+03 0. -1.
</event>
<event>
 4    1  0.5640637E-004  0.6500000E+04  0.7818608E-02  0.7223770E-01
         52   -1    0    0    0    0  0.00000000000E+00  0.00000000000E+00  0.64930732323E+04  0.65000000000E+04  0.30000000000E+03 0. -1.
        -52   -1    0    0    0    0 -0.00000000000E+00 -0.00000000000E+00 -0.64930732323E+04  0.65000000000E+04  0.30000000000E+03 0.  1.
     100001    1    1    2    0    0 -0.32845984663E+03  0.10909460686E+04  0.63976011563E+04  0.65000000000E+04  0.15050000000E+03 0. -1.
     100001    1    1    2    0    0  0.32845984663E+03 -0.10909460686E+04 -0.63976011563E+04  0.65000000000E+04  0.15050000000E+03 0.  1.
</event>
<event>
 4    1  0.5640637E-004  0.6500000E+04  0.7818608E-02  0.7223770E-01
         52   -1    0    0    0    0  0.00000000000E+00  0.00000000000E+00  0.64930732323E+04  0.65000000000E+04  0.30000000000E+03 0. -1.
        -52   -1    0    0    0    0 -0.00000000000E+00 -0.00000000000E+00 -0.64930732323E+04  0.65000000000E+04  0.30000000000E+03 0.  1.
     100001    1    1    2    0    0  0.24256225539E+03  0.21500217789E+04  0.61274725338E+04  0.65000000000E+04  0.15050000000E+03 0. -1.
     100001    1    1    2    0    0 -0.24256225539E+03 -0.21500217789E+04 -0.61274725338E+04  0.65000000000E+04  0.15050000000E+03 0.  1.
</event>
<event>
 4    1  0.5640637E-004  0.6500000E+04  0.7818608E-02  0.7223770E-01
         52   -1    0    0    0    0  0.00000000000E+00  0.00000000000E+00  0.64930732323E+04  0.65000000000E+04  0.30000000000E+03 0. -1.
        -52   -1    0    0    0    0 -0.00000000000E+00 -0.00000000000E+00 -0.64930732323E+04  0.65000000000E+04  0.30000000000E+03 0.  1.
     100001    1    1    2    0    0  0.24494456120E+04 -0.44527658555E+04  0.40497459402E+04  0.65000000000E+04  0.15050000000E+03 0. -1.
     100001    1    1    2    0    0 -0.24494456120E+04  0.44527658555E+04 -0.40497459402E+04  0.65000000000E+04  0.15050000000E+03 0.  1.
</event>
<event>
 4    1  0.5640637E-004  0.6500000E+04  0.7818608E-02  0.7223770E-01
         52   -1    0    0    0    0  0.00000000000E+00  0.00000000000E+00  0.64930732323E+04  0.65000000000E+04  0.30000000000E+03 0.  1.
        -52   -1    0    0    0    0 -0.00000000000E+00 -0.00000000000E+00 -0.64930732323E+04  0.65000000000E+04  0.30000000000E+03 0. -1.
     100001    1    1    2    0    0 -0.40163051682E+04  0.11187830730E+04  0.49844725881E+04  0.65000000000E+04  0.15050000000E+03 0.  1.
     100001    1    1    2    0    0  0.40163051682E+04 -0.11187830730E+04 -0.49844725881E+04  0.65000000000E+04  0.15050000000E+03 0. -1.
</event>
<event>
 4    1  0.5640637E-004  0.6500000E+04  0.7818608E-02  0.7223770E-01
         52   -1    0    0    0    0  0.00000000000E+00  0.00000000000E+00  0.64930732323E+04  0.65000000000E+04  0.30000000000E+03 0. -1.
        -52   -1    0    0    0    0 -0.00000000000E+00 -0.00000000000E+00 -0.64930732323E+04  0.65000000000E+04  0.30000000000E+03 0.  1.
     100001    1    1    2    0    0  0.51226289278E+03 -0.25479909970E+03  0.64730220066E+04  0.65000000000E+04  0.15050000000E+03 0. -1.
     100001    1    1    2    0    0 -0.51226289278E+03  0.25479909970E+03 -0.64730220066E+04  0.65000000000E+04  0.15050000000E+03 0.  1.
</event>
<event>
 4    1  0.5640637E-004  0.6500000E+04  0.7818608E-02  0.7223770E-01
         52   -1    0    0    0    0  0.00000000000E+00  0.00000000000E+00  0.64930732323E+04  0.65000000000E+04  0.30000000000E+03 0.  1.
        -52   -1    0    0    0    0 -0.00000000000E+00 -0.00000000000E+00 -0.64930732323E+04  0.65000000000E+04  0.30000000000E+03 0. -1.
     100001    1    1    2    0    0 -0.66645790106E+03  0.17298814571E+04  0.62282175428E+04  0.65000000000E+04  0.15050000000E+03 0.  1.
     100001    1    1    2    0    0  0.66645790106E+03 -0.17298814571E+04 -0.62282175428E+04  0.65000000000E+04  0.15050000000E+03 0. -1.
</event>
<event>
 4    1  0.5640637E-004  0.6500000E+04  0.7818608E-02  0.7223770E-01
         52   -1    0    0    0    0  0.00000000000E+00  0.00000000000E+00  0.64930732323E+04  0.65000000000E+04  0.30000000000E+03 0.  1.
        -52   -1    0    0    0    0 -0.00000000000E+00 -0.00000000000E+00 -0.64930732323E+04  0.65000000000E+04  0.30000000000E+03 0. -1.
     100001    1    1    2    0    0  0.60008835192E+03 -0.15063335745E+04 -0.62927102970E+04  0.65000000000E+04  0.15050000000E+03 0. -1.
     100001    1    1    2    0    0 -0.60008835192E+03  0.15063335745E+04  0.62927102970E+04  0.65000000000E+04  0.15050000000E+03 0.  1.
</event>
<event>
 4    1  0.5640637E-004  0.6500000E+04  0.7818608E-02  0.7223770E-01
         52   -1    0    0    0    0  0.00000000000E+00  0.00000000000E+00  0.64930732323E+04  0.65000000000E+04  0.30000000000E+03 0.  1.
        -52   -1    0    0    0    0 -0.00000000000E+00 -0.00000000000E+00 -0.64930732323E+04  0.65000000000E+04  0.30000000000E+03 0. -1.
     100001    1    1    2    0    0  0.89958169005E+01 -0.20064528836E+03 -0.64951528307E+04  0.65000000000E+04  0.15050000000E+03 0. -1.
     100001    1    1    2    0    0 -0.89958169005E+01  0.20064528836E+03  0.64951528307E+04  0.65000000000E+04  0.15050000000E+03 0.  1.
</event>
<event>
 4    1  0.5640637E-004  0.6500000E+04  0.7818608E-02  0.7223770E-01
         52   -1    0    0    0    0  0.00000000000E+00  0.00000000000E+00  0.64930732323E+04  0.65000000000E+04  0.30000000000E+03 0.  1.
        -52   -1    0    0    0    0 -0.00000000000E+00 -0.00000000000E+00 -0.64930732323E+04  0.65000000000E+04  0.30000000000E+03 0. -1.
     100001    1    1    2    0    0  0.26715067685E+03  0.64131104171E+03  0.64610138843E+04  0.65000000000E+04  0.15050000000E+03 0.  1.
     100001    1    1    2    0    0 -0.26715067685E+03 -0.64131104171E+03 -0.64610138843E+04  0.65000000000E+04  0.15050000000E+03 0. -1.
</event>
<event>
 4    1  0.5640637E-004  0.6500000E+04  0.7818608E-02  0.7223770E-01
         52   -1    0    0    0    0  0.00000000000E+00  0.00000000000E+00  0.64930732323E+04  0.65000000000E+04  0.30000000000E+03 0.  1.
        -52   -1    0    0    0    0 -0.00000000000E+00 -0.00000000000E+00 -0.64930732323E+04  0.65000000000E+04  0.30000000000E+03 0. -1.
     100001    1    1    2    0    0  0.12348397179E+03 -0.53115249396E+03 -0.64753361679E+04  0.65000000000E+04  0.15050000000E+03 0. -1.
     100001    1    1    2    0    0 -0.12348397179E+03  0.53115249396E+03  0.64753361679E+04  0.65000000000E+04  0.15050000000E+03 0.  1.
</event>
<event>
 4    1  0.5640637E-004  0.6500000E+04  0.7818608E-02  0.7223770E-01
         52   -1    0    0    0    0  0.00000000000E+00  0.00000000000E+00  0.64930732323E+04  0.65000000000E+04  0.30000000000E+03 0.  1.
        -52   -1    0    0    0    0 -0.00000000000E+00 -0.00000000000E+00 -0.64930732323E+04  0.65000000000E+04  0.30000000000E+03 0. -1.
     100001    1    1    2    0    0  0.15994527460E+04  0.21508515049E+04  0.59197076336E+04  0.65000000000E+04  0.15050000000E+03 0.  1.
     100001    1    1    2    0    0 -0.15994527460E+04 -0.21508515049E+04 -0.59197076336E+04  0.65000000000E+04  0.15050000000E+03 0. -1.
</event>
<event>
 4    1  0.5640637E-004  0.6500000E+04  0.7818608E-02  0.7223770E-01
         52   -1    0    0    0    0  0.00000000000E+00  0.00000000000E+00  0.64930732323E+04  0.65000000000E+04  0.30000000000E+03 0.  1.
        -52   -1    0    0    0    0 -0.00000000000E+00 -0.00000000000E+00 -0.64930732323E+04  0.65000000000E+04  0.30000000000E+03 0. -1.
     100001    1    1    2    0    0 -0.64615614006E+04  0.48548448225E+03 -0.48977426764E+03  0.65000000000E+04  0.15050000000E+03 0. -1.
     100001    1    1    2    0    0  0.64615614006E+04 -0.48548448225E+03  0.48977426764E+03  0.65000000000E+04  0.15050000000E+03 0.  1.
</event>
<event>
 4    1  0.5640637E-004  0.6500000E+04  0.7818608E-02  0.7223770E-01
         52   -1    0    0    0    0  0.00000000000E+00  0.00000000000E+00  0.64930732323E+04  0.65000000000E+04  0.30000000000E+03 0.  1.
        -52   -1    0    0    0    0 -0.00000000000E+00 -0.00000000000E+00 -0.64930732323E+04  0.65000000000E+04  0.30000000000E+03 0. -1.
     100001    1    1    2    0    0 -0.15591143555E+04 -0.29811378198E+04  0.55596159468E+04  0.65000000000E+04  0.15050000000E+03 0.  1.
     100001    1    1    2    0    0  0.15591143555E+04  0.29811378198E+04 -0.55596159468E+04  0.65000000000E+04  0.15050000000E+03 0. -1.
</event>
<event>
 4    1  0.5640637E-004  0.6500000E+04  0.7818608E-02  0.7223770E-01
         52   -1    0    0    0    0  0.00000000000E+00  0.00000000000E+00  0.64930732323E+04  0.65000000000E+04  0.30000000000E+03 0. -1.
        -52   -1    0    0    0    0 -0.00000000000E+00 -0.00000000000E+00 -0.64930732323E+04  0.65000000000E+04  0.30000000000E+03 0.  1.
     100001    1    1    2    0    0  0.59085596323E+03 -0.47009662607E+04 -0.44473762149E+04  0.65000000000E+04  0.15050000000E+03 0.  1.
     100001    1    1    2    0    0 -0.59085596323E+03  0.47009662607E+04  0.44473762149E+04  0.65000000000E+04  0.15050000000E+03 0. -1.
</event>
<event>
 4    1  0.5640637E-004  0.6500000E+04  0.7818608E-02  0.7223770E-01
         52   -1    0    0    0    0  0.00000000000E+00  0.00000000000E+00  0.64930732323E+04  0.65000000000E+04  0.30000000000E+03 0.  1.
        -52   -1    0    0    0    0 -0.00000000000E+00 -0.00000000000E+00 -0.64930732323E+04  0.65000000000E+04  0.30000000000E+03 0. -1.
     100001    1    1    2    0    0 -0.39938072420E+04 -0.15631531757E+04  0.48819469080E+04  0.65000000000E+04  0.15050000000E+03 0.  1.
     100001    1    1    2    0    0  0.39938072420E+04  0.15631531757E+04 -0.48819469080E+04  0.65000000000E+04  0.15050000000E+03 0. -1.
</event>
<event>
 4    1  0.5640637E-004  0.6500000E+04  0.7818608E-02  0.7223770E-01
         52   -1    0    0    0    0  0.00000000000E+00  0.00000000000E+00  0.64930732323E+04  0.65000000000E+04  0.30000000000E+03 0.  1.
        -52   -1    0    0    0    0 -0.00000000000E+00 -0.00000000000E+00 -0.64930732323E+04  0.65000000000E+04  0.30000000000E+03 0. -1.
     100001    1    1    2    0    0  0.40017204935E+04  0.17646598440E+04 -0.48062000039E+04  0.65000000000E+04  0.15050000000E+03 0. -1.
     100001    1    1    2    0    0 -0.40017204935E+04 -0.17646598440E+04  0.48062000039E+04  0.65000000000E+04  0.15050000000E+03 0.  1.
</event>
<event>
 4    1  0.5640637E-004  0.6500000E+04  0.7818608E-02  0.7223770E-01
         52   -1    0    0    0    0  0.00000000000E+00  0.00000000000E+00  0.64930732323E+04  0.65000000000E+04  0.30000000000E+03 0.  1.
        -52   -1    0    0    0    0 -0.00000000000E+00 -0.00000000000E+00 -0.64930732323E+04  0.65000000000E+04  0.30000000000E+03 0. -1.
     100001    1    1    2    0    0  0.33414266508E+04 -0.50220678560E+04 -0.24168268736E+04  0.65000000000E+04  0.15050000000E+03 0. -1.
     100001    1    1    2    0    0 -0.33414266508E+04  0.50220678560E+04  0.24168268736E+04  0.65000000000E+04  0.15050000000E+03 0.  1.
</event>
<event>
 4    1  0.5640637E-004  0.6500000E+04  0.7818608E-02  0.7223770E-01
         52   -1    0    0    0    0  0.00000000000E+00  0.00000000000E+00  0.64930732323E+04  0.65000000000E+04  0.30000000000E+03 0. -1.
        -52   -1    0    0    0    0 -0.00000000000E+00 -0.00000000000E+00 -0.64930732323E+04  0.65000000000E+04  0.30000000000E+03 0.  1.
     100001    1    1    2    0    0 -0.49770789693E+02 -0.29890672372E+03  0.64911884420E+04  0.65000000000E+04  0.15050000000E+03 0. -1.
     100001    1    1    2    0    0  0.49770789693E+02  0.29890672372E+03 -0.64911884420E+04  0.65000000000E+04  0.15050000000E+03 0.  1.
</event>
<event>
 4    1  0.5640637E-004  0.6500000E+04  0.7818608E-02  0.7223770E-01
         52   -1    0    0    0    0  0.00000000000E+00  0.00000000000E+00  0.64930732323E+04  0.65000000000E+04  0.30000000000E+03 0. -1.
        -52   -1    0    0    0    0 -0.00000000000E+00 -0.00000000000E+00 -0.64930732323E+04  0.65000000000E+04  0.30000000000E+03 0.  1.
     100001    1    1    2    0    0 -0.31025564610E+04  0.45026914666E+04 -0.35110201812E+04  0.65000000000E+04  0.15050000000E+03 0.  1.
     100001    1    1    2    0    0  0.31025564610E+04 -0.45026914666E+04  0.35110201812E+04  0.65000000000E+04  0.15050000000E+03 0. -1.
</event>
<event>
 4    1  0.5640637E-004  0.6500000E+04  0.7818608E-02  0.7223770E-01
         52   -1    0    0    0    0  0.00000000000E+00  0.00000000000E+00  0.64930732323E+04  0.65000000000E+04  0.30000000000E+03 0. -1.
        -52   -1    0    0    0    0 -0.00000000000E+00 -0.00000000000E+00 -0.64930732323E+04  0.65000000000E+04  0.30000000000E+03 0.  1.
     100001    1    1    2    0    0  0.12850327851E+04 -0.60953547636E+04 -0.18500515661E+04  0.65000000000E+04  0.15050000000E+03 0.  1.
     100001    1    1    2    0    0 -0.12850327851E+04  0.60953547636E+04  0.18500515661E+04  0.65000000000E+04  0.15050000000E+03 0. -1.
</event>
<event>
 4    1  0.5640637E-004  0.6500000E+04  0.7818608E-02  0.7223770E-01
         52   -1    0    0    0    0  0.00000000000E+00  0.00000000000E+00  0.64930732323E+04  0.65000000000E+04  0.30000000000E+03 0. -1.
        -52   -1    0    0    0    0 -0.00000000000E+00 -0.00000000000E+00 -0.64930732323E+04  0.65000000000E+04  0.30000000000E+03 0.  1.
     100001    1    1    2    0    0  0.31369396132E+04 -0.39608040753E+04 -0.40864398552E+04  0.65000000000E+04  0.15050000000E+03 0.  1.
     100001    1    1    2    0    0 -0.31369396132E+04  0.39608040753E+04  0.40864398552E+04  0.65000000000E+04  0.15050000000E+03 0. -1.
</event>
<event>
 4    1  0.5640637E-004  0.6500000E+04  0.7818608E-02  0.7223770E-01
         52   -1    0    0    0    0  0.00000000000E+00  0.00000000000E+00  0.64930732323E+04  0.65000000000E+04  0.30000000000E+03 0.  1.
        -52   -1    0    0    0    0 -0.00000000000E+00 -0.00000000000E+00 -0.64930732323E+04  0.65000000000E+04  0.30000000000E+03 0.  1.
     100001    1    1    2    0    0  0.32640399122E+03  0.21916424964E+03  0.64863531523E+04  0.65000000000E+04  0.15050000000E+03 0.  1.
     100001    1    1    2    0    0 -0.32640399122E+03 -0.21916424964E+03 -0.64863531523E+04  0.65000000000E+04  0.15050000000E+03 0.  1.
</event>
<event>
 4    1  0.5640637E-004  0.6500000E+04  0.7818608E-02  0.7223770E-01
         52   -1    0    0    0    0  0.00000000000E+00  0.00000000000E+00  0.64930732323E+04  0.65000000000E+04  0.30000000000E+03 0.  1.
        -52   -1    0    0    0    0 -0.00000000000E+00 -0.00000000000E+00 -0.64930732323E+04  0.65000000000E+04  0.30000000000E+03 0. -1.
     100001    1    1    2    0    0  0.22108440608E+04  0.44188596006E+04 -0.42205684593E+04  0.65000000000E+04  0.15050000000E+03 0. -1.
     100001    1    1    2    0    0 -0.22108440608E+04 -0.44188596006E+04  0.42205684593E+04  0.65000000000E+04  0.15050000000E+03 0.  1.
</event>
<event>
 4    1  0.5640637E-004  0.6500000E+04  0.7818608E-02  0.7223770E-01
         52   -1    0    0    0    0  0.00000000000E+00  0.00000000000E+00  0.64930732323E+04  0.65000000000E+04  0.30000000000E+03 0. -1.
        -52   -1    0    0    0    0 -0.00000000000E+00 -0.00000000000E+00 -0.64930732323E+04  0.65000000000E+04  0.30000000000E+03 0.  1.
     100001    1    1    2    0    0 -0.89289293394E+02  0.15559542164E+03 -0.64957807257E+04  0.65000000000E+04  0.15050000000E+03 0.  1.
     100001    1    1    2    0    0  0.89289293394E+02 -0.15559542164E+03  0.64957807257E+04  0.65000000000E+04  0.15050000000E+03 0. -1.
</event>
<event>
 4    1  0.5640637E-004  0.6500000E+04  0.7818608E-02  0.7223770E-01
         52   -1    0    0    0    0  0.00000000000E+00  0.00000000000E+00  0.64930732323E+04  0.65000000000E+04  0.30000000000E+03 0. -1.
        -52   -1    0    0    0    0 -0.00000000000E+00 -0.00000000000E+00 -0.64930732323E+04  0.65000000000E+04  0.30000000000E+03 0. -1.
     100001    1    1    2    0    0  0.95350132247E+03  0.36241610747E+03  0.64176973708E+04  0.65000000000E+04  0.15050000000E+03 0. -1.
     100001    1    1    2    0    0 -0.95350132247E+03 -0.36241610747E+03 -0.64176973708E+04  0.65000000000E+04  0.15050000000E+03 0. -1.
</event>
<event>
 4    1  0.5640637E-004  0.6500000E+04  0.7818608E-02  0.7223770E-01
         52   -1    0    0    0    0  0.00000000000E+00  0.00000000000E+00  0.64930732323E+04  0.65000000000E+04  0.30000000000E+03 0. -1.
        -52   -1    0    0    0    0 -0.00000000000E+00 -0.00000000000E+00 -0.64930732323E+04  0.65000000000E+04  0.30000000000E+03 0.  1.
     100001    1    1    2    0    0  0.58113786972E+04  0.36388988508E+03  0.28849283421E+04  0.65000000000E+04  0.15050000000E+03 0. -1.
     100001    1    1    2    0    0 -0.58113786972E+04 -0.36388988508E+03 -0.28849283421E+04  0.65000000000E+04  0.15050000000E+03 0.  1.
</event>
<event>
 4    1  0.5640637E-004  0.6500000E+04  0.7818608E-02  0.7223770E-01
         52   -1    0    0    0    0  0.00000000000E+00  0.00000000000E+00  0.64930732323E+04  0.65000000000E+04  0.30000000000E+03 0.  1.
        -52   -1    0    0    0    0 -0.00000000000E+00 -0.00000000000E+00 -0.64930732323E+04  0.65000000000E+04  0.30000000000E+03 0. -1.
     100001    1    1    2    0    0  0.41490197190E+03  0.82278668223E+03 -0.64325910937E+04  0.65000000000E+04  0.15050000000E+03 0. -1.
     100001    1    1    2    0    0 -0.41490197190E+03 -0.82278668223E+03  0.64325910937E+04  0.65000000000E+04  0.15050000000E+03 0.  1.
</event>
<event>
 4    1  0.5640637E-004  0.6500000E+04  0.7818608E-02  0.7223770E-01
         52   -1    0    0    0    0  0.00000000000E+00  0.00000000000E+00  0.64930732323E+04  0.65000000000E+04  0.30000000000E+03 0. -1.
        -52   -1    0    0    0    0 -0.00000000000E+00 -0.00000000000E+00 -0.64930732323E+04  0.65000000000E+04  0.30000000000E+03 0.  1.
     100001    1    1    2    0    0  0.14091177803E+03  0.30853998873E+03  0.64893987931E+04  0.65000000000E+04  0.15050000000E+03 0. -1.
     100001    1    1    2    0    0 -0.14091177803E+03 -0.30853998873E+03 -0.64893987931E+04  0.65000000000E+04  0.15050000000E+03 0.  1.
</event>
<event>
 4    1  0.5640637E-004  0.6500000E+04  0.7818608E-02  0.7223770E-01
         52   -1    0    0    0    0  0.00000000000E+00  0.00000000000E+00  0.64930732323E+04  0.65000000000E+04  0.30000000000E+03 0. -1.
        -52   -1    0    0    0    0 -0.00000000000E+00 -0.00000000000E+00 -0.64930732323E+04  0.65000000000E+04  0.30000000000E+03 0.  1.
     100001    1    1    2    0    0  0.63997815386E+04  0.10400542056E+04  0.43408899749E+03  0.65000000000E+04  0.15050000000E+03 0.  1.
     100001    1    1    2    0    0 -0.63997815386E+04 -0.10400542056E+04 -0.43408899749E+03  0.65000000000E+04  0.15050000000E+03 0. -1.
</event>
<event>
 4    1  0.5640637E-004  0.6500000E+04  0.7818608E-02  0.7223770E-01
         52   -1    0    0    0    0  0.00000000000E+00  0.00000000000E+00  0.64930732323E+04  0.65000000000E+04  0.30000000000E+03 0.  1.
        -52   -1    0    0    0    0 -0.00000000000E+00 -0.00000000000E+00 -0.64930732323E+04  0.65000000000E+04  0.30000000000E+03 0. -1.
     100001    1    1    2    0    0  0.64525581208E+03  0.30274764206E+03  0.64590509018E+04  0.65000000000E+04  0.15050000000E+03 0.  1.
     100001    1    1    2    0    0 -0.64525581208E+03 -0.30274764206E+03 -0.64590509018E+04  0.65000000000E+04  0.15050000000E+03 0. -1.
</event>
<event>
 4    1  0.5640637E-004  0.6500000E+04  0.7818608E-02  0.7223770E-01
         52   -1    0    0    0    0  0.00000000000E+00  0.00000000000E+00  0.64930732323E+04  0.65000000000E+04  0.30000000000E+03 0. -1.
        -52   -1    0    0    0    0 -0.00000000000E+00 -0.00000000000E+00 -0.64930732323E+04  0.65000000000E+04  0.30000000000E+03 0.  1.
     100001    1    1    2    0    0 -0.64774208742E+02  0.15407201236E+04 -0.63126330127E+04  0.65000000000E+04  0.15050000000E+03 0.  1.
     100001    1    1    2    0    0  0.64774208742E+02 -0.15407201236E+04  0.63126330127E+04  0.65000000000E+04  0.15050000000E+03 0. -1.
</event>
<event>
 4    1  0.5640637E-004  0.6500000E+04  0.7818608E-02  0.7223770E-01
         52   -1    0    0    0    0  0.00000000000E+00  0.00000000000E+00  0.64930732323E+04  0.65000000000E+04  0.30000000000E+03 0. -1.
        -52   -1    0    0    0    0 -0.00000000000E+00 -0.00000000000E+00 -0.64930732323E+04  0.65000000000E+04  0.30000000000E+03 0.  1.
     100001    1    1    2    0    0 -0.50994831592E+03  0.19905924268E+02 -0.64781869546E+04  0.65000000000E+04  0.15050000000E+03 0.  1.
     100001    1    1    2    0    0  0.50994831592E+03 -0.19905924268E+02  0.64781869546E+04  0.65000000000E+04  0.15050000000E+03 0. -1.
</event>
<event>
 4    1  0.5640637E-004  0.6500000E+04  0.7818608E-02  0.7223770E-01
         52   -1    0    0    0    0  0.00000000000E+00  0.00000000000E+00  0.64930732323E+04  0.65000000000E+04  0.30000000000E+03 0. -1.
        -52   -1    0    0    0    0 -0.00000000000E+00 -0.00000000000E+00 -0.64930732323E+04  0.65000000000E+04  0.30000000000E+03 0.  1.
     100001    1    1    2    0    0  0.88296391725E+03  0.63360744395E+03  0.64067359925E+04  0.65000000000E+04  0.15050000000E+03 0. -1.
     100001    1    1    2    0    0 -0.88296391725E+03 -0.63360744395E+03 -0.64067359925E+04  0.65000000000E+04  0.15050000000E+03 0.  1.
</event>
<event>
 4    1  0.5640637E-004  0.6500000E+04  0.7818608E-02  0.7223770E-01
         52   -1    0    0    0    0  0.00000000000E+00  0.00000000000E+00  0.64930732323E+04  0.65000000000E+04  0.30000000000E+03 0. -1.
        -52   -1    0    0    0    0 -0.00000000000E+00 -0.00000000000E+00 -0.64930732323E+04  0.65000000000E+04  0.30000000000E+03 0. -1.
     100001    1    1    2    0    0  0.39041900052E+03 -0.15784949494E+03 -0.64845976198E+04  0.65000000000E+04  0.15050000000E+03 0. -1.
     100001    1    1    2    0    0 -0.39041900052E+03  0.15784949494E+03  0.64845976198E+04  0.65000000000E+04  0.15050000000E+03 0. -1.
</event>
<event>
 4    1  0.5640637E-004  0.6500000E+04  0.7818608E-02  0.7223770E-01
         52   -1    0    0    0    0  0.00000000000E+00  0.00000000000E+00  0.64930732323E+04  0.65000000000E+04  0.30000000000E+03 0. -1.
        -52   -1    0    0    0    0 -0.00000000000E+00 -0.00000000000E+00 -0.64930732323E+04  0.65000000000E+04  0.30000000000E+03 0.  1.
     100001    1    1    2    0    0 -0.41937026048E+04 -0.16614395094E+04  0.46775877297E+04  0.65000000000E+04  0.15050000000E+03 0. -1.
     100001    1    1    2    0    0  0.41937026048E+04  0.16614395094E+04 -0.46775877297E+04  0.65000000000E+04  0.15050000000E+03 0.  1.
</event>
<event>
 4    1  0.6185040E-004  0.6500000E+04  0.7818608E-02  0.7223770E-01
         52   -1    0    0    0    0  0.00000000000E+00  0.00000000000E+00  0.64930732323E+04  0.65000000000E+04  0.30000000000E+03 0. -1.
        -52   -1    0    0    0    0 -0.00000000000E+00 -0.00000000000E+00 -0.64930732323E+04  0.65000000000E+04  0.30000000000E+03 0.  1.
     100001    1    1    2    0    0  0.90607065319E+02 -0.18237573298E+03 -0.64950657581E+04  0.65000000000E+04  0.15050000000E+03 0.  1.
     100001    1    1    2    0    0 -0.90607065319E+02  0.18237573298E+03  0.64950657581E+04  0.65000000000E+04  0.15050000000E+03 0. -1.
</event>
<event>
 4    1  0.5640637E-004  0.6500000E+04  0.7818608E-02  0.7223770E-01
         52   -1    0    0    0    0  0.00000000000E+00  0.00000000000E+00  0.64930732323E+04  0.65000000000E+04  0.30000000000E+03 0.  1.
        -52   -1    0    0    0    0 -0.00000000000E+00 -0.00000000000E+00 -0.64930732323E+04  0.65000000000E+04  0.30000000000E+03 0. -1.
     100001    1    1    2    0    0 -0.52661087594E+03 -0.26480584947E+04  0.59108220193E+04  0.65000000000E+04  0.15050000000E+03 0.  1.
     100001    1    1    2    0    0  0.52661087594E+03  0.26480584947E+04 -0.59108220193E+04  0.65000000000E+04  0.15050000000E+03 0. -1.
</event>
<event>
 4    1  0.5640637E-004  0.6500000E+04  0.7818608E-02  0.7223770E-01
         52   -1    0    0    0    0  0.00000000000E+00  0.00000000000E+00  0.64930732323E+04  0.65000000000E+04  0.30000000000E+03 0.  1.
        -52   -1    0    0    0    0 -0.00000000000E+00 -0.00000000000E+00 -0.64930732323E+04  0.65000000000E+04  0.30000000000E+03 0. -1.
     100001    1    1    2    0    0  0.18753346595E+04 -0.46860832020E+04 -0.40928100236E+04  0.65000000000E+04  0.15050000000E+03 0. -1.
     100001    1    1    2    0    0 -0.18753346595E+04  0.46860832020E+04  0.40928100236E+04  0.65000000000E+04  0.15050000000E+03 0.  1.
</event>
<event>
 4    1  0.5640637E-004  0.6500000E+04  0.7818608E-02  0.7223770E-01
         52   -1    0    0    0    0  0.00000000000E+00  0.00000000000E+00  0.64930732323E+04  0.65000000000E+04  0.30000000000E+03 0.  1.
        -52   -1    0    0    0    0 -0.00000000000E+00 -0.00000000000E+00 -0.64930732323E+04  0.65000000000E+04  0.30000000000E+03 0. -1.
     100001    1    1    2    0    0 -0.12314859728E+03 -0.15601135068E+04 -0.63069984952E+04  0.65000000000E+04  0.15050000000E+03 0. -1.
     100001    1    1    2    0    0  0.12314859728E+03  0.15601135068E+04  0.63069984952E+04  0.65000000000E+04  0.15050000000E+03 0.  1.
</event>
<event>
 4    1  0.5640637E-004  0.6500000E+04  0.7818608E-02  0.7223770E-01
         52   -1    0    0    0    0  0.00000000000E+00  0.00000000000E+00  0.64930732323E+04  0.65000000000E+04  0.30000000000E+03 0. -1.
        -52   -1    0    0    0    0 -0.00000000000E+00 -0.00000000000E+00 -0.64930732323E+04  0.65000000000E+04  0.30000000000E+03 0.  1.
     100001    1    1    2    0    0  0.11851070869E+04 -0.57205838681E+03 -0.63636169074E+04  0.65000000000E+04  0.15050000000E+03 0.  1.
     100001    1    1    2    0    0 -0.11851070869E+04  0.57205838681E+03  0.63636169074E+04  0.65000000000E+04  0.15050000000E+03 0. -1.
</event>
<event>
 4    1  0.5640637E-004  0.6500000E+04  0.7818608E-02  0.7223770E-01
         52   -1    0    0    0    0  0.00000000000E+00  0.00000000000E+00  0.64930732323E+04  0.65000000000E+04  0.30000000000E+03 0.  1.
        -52   -1    0    0    0    0 -0.00000000000E+00 -0.00000000000E+00 -0.64930732323E+04  0.65000000000E+04  0.30000000000E+03 0. -1.
     100001    1    1    2    0    0  0.45930899858E+04  0.23593450285E+04  0.39451698529E+04  0.65000000000E+04  0.15050000000E+03 0.  1.
     100001    1    1    2    0    0 -0.45930899858E+04 -0.23593450285E+04 -0.39451698529E+04  0.65000000000E+04  0.15050000000E+03 0. -1.
</event>
<event>
 4    1  0.5640637E-004  0.6500000E+04  0.7818608E-02  0.7223770E-01
         52   -1    0    0    0    0  0.00000000000E+00  0.00000000000E+00  0.64930732323E+04  0.65000000000E+04  0.30000000000E+03 0.  1.
        -52   -1    0    0    0    0 -0.00000000000E+00 -0.00000000000E+00 -0.64930732323E+04  0.65000000000E+04  0.30000000000E+03 0. -1.
     100001    1    1    2    0    0 -0.25684826738E+03 -0.66804986511E+03  0.64587218624E+04  0.65000000000E+04  0.15050000000E+03 0.  1.
     100001    1    1    2    0    0  0.25684826738E+03  0.66804986511E+03 -0.64587218624E+04  0.65000000000E+04  0.15050000000E+03 0. -1.
</event>
<event>
 4    1  0.5640637E-004  0.6500000E+04  0.7818608E-02  0.7223770E-01
         52   -1    0    0    0    0  0.00000000000E+00  0.00000000000E+00  0.64930732323E+04  0.65000000000E+04  0.30000000000E+03 0.  1.
        -52   -1    0    0    0    0 -0.00000000000E+00 -0.00000000000E+00 -0.64930732323E+04  0.65000000000E+04  0.30000000000E+03 0.  1.
     100001    1    1    2    0    0 -0.26065231898E+02 -0.53072539213E+02 -0.64979884318E+04  0.65000000000E+04  0.15050000000E+03 0.  1.
     100001    1    1    2    0    0  0.26065231898E+02  0.53072539213E+02  0.64979884318E+04  0.65000000000E+04  0.15050000000E+03 0.  1.
</event>
<event>
 4    1  0.5640637E-004  0.6500000E+04  0.7818608E-02  0.7223770E-01
         52   -1    0    0    0    0  0.00000000000E+00  0.00000000000E+00  0.64930732323E+04  0.65000000000E+04  0.30000000000E+03 0.  1.
        -52   -1    0    0    0    0 -0.00000000000E+00 -0.00000000000E+00 -0.64930732323E+04  0.65000000000E+04  0.30000000000E+03 0. -1.
     100001    1    1    2    0    0  0.57670230603E+04 -0.22630015368E+04  0.19615348114E+04  0.65000000000E+04  0.15050000000E+03 0.  1.
     100001    1    1    2    0    0 -0.57670230603E+04  0.22630015368E+04 -0.19615348114E+04  0.65000000000E+04  0.15050000000E+03 0. -1.
</event>
<event>
 4    1  0.5640637E-004  0.6500000E+04  0.7818608E-02  0.7223770E-01
         52   -1    0    0    0    0  0.00000000000E+00  0.00000000000E+00  0.64930732323E+04  0.65000000000E+04  0.30000000000E+03 0. -1.
        -52   -1    0    0    0    0 -0.00000000000E+00 -0.00000000000E+00 -0.64930732323E+04  0.65000000000E+04  0.30000000000E+03 0.  1.
     100001    1    1    2    0    0 -0.11245074103E+04 -0.58456573508E+03 -0.63734696779E+04  0.65000000000E+04  0.15050000000E+03 0.  1.
     100001    1    1    2    0    0  0.11245074103E+04  0.58456573508E+03  0.63734696779E+04  0.65000000000E+04  0.15050000000E+03 0. -1.
</event>
<event>
 4    1  0.5640637E-004  0.6500000E+04  0.7818608E-02  0.7223770E-01
         52   -1    0    0    0    0  0.00000000000E+00  0.00000000000E+00  0.64930732323E+04  0.65000000000E+04  0.30000000000E+03 0.  1.
        -52   -1    0    0    0    0 -0.00000000000E+00 -0.00000000000E+00 -0.64930732323E+04  0.65000000000E+04  0.30000000000E+03 0. -1.
     100001    1    1    2    0    0  0.50891070317E+04  0.23507748737E+04 -0.32866695701E+04  0.65000000000E+04  0.15050000000E+03 0. -1.
     100001    1    1    2    0    0 -0.50891070317E+04 -0.23507748737E+04  0.32866695701E+04  0.65000000000E+04  0.15050000000E+03 0.  1.
</event>
<event>
 4    1  0.5640637E-004  0.6500000E+04  0.7818608E-02  0.7223770E-01
         52   -1    0    0    0    0  0.00000000000E+00  0.00000000000E+00  0.64930732323E+04  0.65000000000E+04  0.30000000000E+03 0. -1.
        -52   -1    0    0    0    0 -0.00000000000E+00 -0.00000000000E+00 -0.64930732323E+04  0.65000000000E+04  0.30000000000E+03 0.  1.
     100001    1    1    2    0    0  0.18108757786E+04  0.37122345877E+04  0.50167113760E+04  0.65000000000E+04  0.15050000000E+03 0. -1.
     100001    1    1    2    0    0 -0.18108757786E+04 -0.37122345877E+04 -0.50167113760E+04  0.65000000000E+04  0.15050000000E+03 0.  1.
</event>
<event>
 4    1  0.5640637E-004  0.6500000E+04  0.7818608E-02  0.7223770E-01
         52   -1    0    0    0    0  0.00000000000E+00  0.00000000000E+00  0.64930732323E+04  0.65000000000E+04  0.30000000000E+03 0.  1.
        -52   -1    0    0    0    0 -0.00000000000E+00 -0.00000000000E+00 -0.64930732323E+04  0.65000000000E+04  0.30000000000E+03 0. -1.
     100001    1    1    2    0    0 -0.86781041900E+03 -0.12340675414E+04  0.63207066164E+04  0.65000000000E+04  0.15050000000E+03 0.  1.
     100001    1    1    2    0    0  0.86781041900E+03  0.12340675414E+04 -0.63207066164E+04  0.65000000000E+04  0.15050000000E+03 0. -1.
</event>
<event>
 4    1  0.5640637E-004  0.6500000E+04  0.7818608E-02  0.7223770E-01
         52   -1    0    0    0    0  0.00000000000E+00  0.00000000000E+00  0.64930732323E+04  0.65000000000E+04  0.30000000000E+03 0. -1.
        -52   -1    0    0    0    0 -0.00000000000E+00 -0.00000000000E+00 -0.64930732323E+04  0.65000000000E+04  0.30000000000E+03 0.  1.
     100001    1    1    2    0    0  0.21208808028E+03 -0.56622328178E+02 -0.64945486609E+04  0.65000000000E+04  0.15050000000E+03 0.  1.
     100001    1    1    2    0    0 -0.21208808028E+03  0.56622328178E+02  0.64945486609E+04  0.65000000000E+04  0.15050000000E+03 0. -1.
</event>
<event>
 4    1  0.5640637E-004  0.6500000E+04  0.7818608E-02  0.7223770E-01
         52   -1    0    0    0    0  0.00000000000E+00  0.00000000000E+00  0.64930732323E+04  0.65000000000E+04  0.30000000000E+03 0.  1.
        -52   -1    0    0    0    0 -0.00000000000E+00 -0.00000000000E+00 -0.64930732323E+04  0.65000000000E+04  0.30000000000E+03 0. -1.
     100001    1    1    2    0    0  0.32334146592E+04  0.42028560218E+03  0.56210087533E+04  0.65000000000E+04  0.15050000000E+03 0.  1.
     100001    1    1    2    0    0 -0.32334146592E+04 -0.42028560218E+03 -0.56210087533E+04  0.65000000000E+04  0.15050000000E+03 0. -1.
</event>
<event>
 4    1  0.5640637E-004  0.6500000E+04  0.7818608E-02  0.7223770E-01
         52   -1    0    0    0    0  0.00000000000E+00  0.00000000000E+00  0.64930732323E+04  0.65000000000E+04  0.30000000000E+03 0. -1.
        -52   -1    0    0    0    0 -0.00000000000E+00 -0.00000000000E+00 -0.64930732323E+04  0.65000000000E+04  0.30000000000E+03 0.  1.
     100001    1    1    2    0    0  0.84801986092E+02  0.22710340715E+04 -0.60879029739E+04  0.65000000000E+04  0.15050000000E+03 0.  1.
     100001    1    1    2    0    0 -0.84801986092E+02 -0.22710340715E+04  0.60879029739E+04  0.65000000000E+04  0.15050000000E+03 0. -1.
</event>
<event>
 4    1  0.5640637E-004  0.6500000E+04  0.7818608E-02  0.7223770E-01
         52   -1    0    0    0    0  0.00000000000E+00  0.00000000000E+00  0.64930732323E+04  0.65000000000E+04  0.30000000000E+03 0. -1.
        -52   -1    0    0    0    0 -0.00000000000E+00 -0.00000000000E+00 -0.64930732323E+04  0.65000000000E+04  0.30000000000E+03 0.  1.
     100001    1    1    2    0    0  0.34454048804E+03  0.41110745311E+01 -0.64891158644E+04  0.65000000000E+04  0.15050000000E+03 0.  1.
     100001    1    1    2    0    0 -0.34454048804E+03 -0.41110745311E+01  0.64891158644E+04  0.65000000000E+04  0.15050000000E+03 0. -1.
</event>
<event>
 4    1  0.5640637E-004  0.6500000E+04  0.7818608E-02  0.7223770E-01
         52   -1    0    0    0    0  0.00000000000E+00  0.00000000000E+00  0.64930732323E+04  0.65000000000E+04  0.30000000000E+03 0. -1.
        -52   -1    0    0    0    0 -0.00000000000E+00 -0.00000000000E+00 -0.64930732323E+04  0.65000000000E+04  0.30000000000E+03 0.  1.
     100001    1    1    2    0    0  0.20076248761E+04  0.46685223159E+03 -0.61626975507E+04  0.65000000000E+04  0.15050000000E+03 0.  1.
     100001    1    1    2    0    0 -0.20076248761E+04 -0.46685223159E+03  0.61626975507E+04  0.65000000000E+04  0.15050000000E+03 0. -1.
</event>
<event>
 4    1  0.5640637E-004  0.6500000E+04  0.7818608E-02  0.7223770E-01
         52   -1    0    0    0    0  0.00000000000E+00  0.00000000000E+00  0.64930732323E+04  0.65000000000E+04  0.30000000000E+03 0. -1.
        -52   -1    0    0    0    0 -0.00000000000E+00 -0.00000000000E+00 -0.64930732323E+04  0.65000000000E+04  0.30000000000E+03 0.  1.
     100001    1    1    2    0    0 -0.61066275047E+03  0.18041931858E+04 -0.62128357216E+04  0.65000000000E+04  0.15050000000E+03 0.  1.
     100001    1    1    2    0    0  0.61066275047E+03 -0.18041931858E+04  0.62128357216E+04  0.65000000000E+04  0.15050000000E+03 0. -1.
</event>
<event>
 4    1  0.5640637E-004  0.6500000E+04  0.7818608E-02  0.7223770E-01
         52   -1    0    0    0    0  0.00000000000E+00  0.00000000000E+00  0.64930732323E+04  0.65000000000E+04  0.30000000000E+03 0. -1.
        -52   -1    0    0    0    0 -0.00000000000E+00 -0.00000000000E+00 -0.64930732323E+04  0.65000000000E+04  0.30000000000E+03 0.  1.
     100001    1    1    2    0    0 -0.72255147025E+03  0.12131766321E+04  0.63429860147E+04  0.65000000000E+04  0.15050000000E+03 0. -1.
     100001    1    1    2    0    0  0.72255147025E+03 -0.12131766321E+04 -0.63429860147E+04  0.65000000000E+04  0.15050000000E+03 0.  1.
</event>
<event>
 4    1  0.5640637E-004  0.6500000E+04  0.7818608E-02  0.7223770E-01
         52   -1    0    0    0    0  0.00000000000E+00  0.00000000000E+00  0.64930732323E+04  0.65000000000E+04  0.30000000000E+03 0. -1.
        -52   -1    0    0    0    0 -0.00000000000E+00 -0.00000000000E+00 -0.64930732323E+04  0.65000000000E+04  0.30000000000E+03 0.  1.
     100001    1    1    2    0    0  0.42549953651E+03 -0.44707229116E+02 -0.64841577061E+04  0.65000000000E+04  0.15050000000E+03 0.  1.
     100001    1    1    2    0    0 -0.42549953651E+03  0.44707229116E+02  0.64841577061E+04  0.65000000000E+04  0.15050000000E+03 0. -1.
</event>
<event>
 4    1  0.5640637E-004  0.6500000E+04  0.7818608E-02  0.7223770E-01
         52   -1    0    0    0    0  0.00000000000E+00  0.00000000000E+00  0.64930732323E+04  0.65000000000E+04  0.30000000000E+03 0. -1.
        -52   -1    0    0    0    0 -0.00000000000E+00 -0.00000000000E+00 -0.64930732323E+04  0.65000000000E+04  0.30000000000E+03 0.  1.
     100001    1    1    2    0    0  0.68493090311E+03  0.37855698401E+03 -0.64509622552E+04  0.65000000000E+04  0.15050000000E+03 0.  1.
     100001    1    1    2    0    0 -0.68493090311E+03 -0.37855698401E+03  0.64509622552E+04  0.65000000000E+04  0.15050000000E+03 0. -1.
</event>
<event>
 4    1  0.5640637E-004  0.6500000E+04  0.7818608E-02  0.7223770E-01
         52   -1    0    0    0    0  0.00000000000E+00  0.00000000000E+00  0.64930732323E+04  0.65000000000E+04  0.30000000000E+03 0.  1.
        -52   -1    0    0    0    0 -0.00000000000E+00 -0.00000000000E+00 -0.64930732323E+04  0.65000000000E+04  0.30000000000E+03 0. -1.
     100001    1    1    2    0    0  0.40355771222E+03  0.50626558355E+04  0.40538878640E+04  0.65000000000E+04  0.15050000000E+03 0.  1.
     100001    1    1    2    0    0 -0.40355771222E+03 -0.50626558355E+04 -0.40538878640E+04  0.65000000000E+04  0.15050000000E+03 0. -1.
</event>
<event>
 4    1  0.5640637E-004  0.6500000E+04  0.7818608E-02  0.7223770E-01
         52   -1    0    0    0    0  0.00000000000E+00  0.00000000000E+00  0.64930732323E+04  0.65000000000E+04  0.30000000000E+03 0.  1.
        -52   -1    0    0    0    0 -0.00000000000E+00 -0.00000000000E+00 -0.64930732323E+04  0.65000000000E+04  0.30000000000E+03 0. -1.
     100001    1    1    2    0    0  0.12075621560E+04  0.24897558892E+04  0.58796478637E+04  0.65000000000E+04  0.15050000000E+03 0.  1.
     100001    1    1    2    0    0 -0.12075621560E+04 -0.24897558892E+04 -0.58796478637E+04  0.65000000000E+04  0.15050000000E+03 0. -1.
</event>
<event>
 4    1  0.5640637E-004  0.6500000E+04  0.7818608E-02  0.7223770E-01
         52   -1    0    0    0    0  0.00000000000E+00  0.00000000000E+00  0.64930732323E+04  0.65000000000E+04  0.30000000000E+03 0.  1.
        -52   -1    0    0    0    0 -0.00000000000E+00 -0.00000000000E+00 -0.64930732323E+04  0.65000000000E+04  0.30000000000E+03 0. -1.
     100001    1    1    2    0    0 -0.32176554405E+04  0.12817970269E+03 -0.56442548826E+04  0.65000000000E+04  0.15050000000E+03 0. -1.
     100001    1    1    2    0    0  0.32176554405E+04 -0.12817970269E+03  0.56442548826E+04  0.65000000000E+04  0.15050000000E+03 0.  1.
</event>
<event>
 4    1  0.5640637E-004  0.6500000E+04  0.7818608E-02  0.7223770E-01
         52   -1    0    0    0    0  0.00000000000E+00  0.00000000000E+00  0.64930732323E+04  0.65000000000E+04  0.30000000000E+03 0.  1.
        -52   -1    0    0    0    0 -0.00000000000E+00 -0.00000000000E+00 -0.64930732323E+04  0.65000000000E+04  0.30000000000E+03 0. -1.
     100001    1    1    2    0    0 -0.25191147032E+03  0.66699858789E+03  0.64590249454E+04  0.65000000000E+04  0.15050000000E+03 0.  1.
     100001    1    1    2    0    0  0.25191147032E+03 -0.66699858789E+03 -0.64590249454E+04  0.65000000000E+04  0.15050000000E+03 0. -1.
</event>
<event>
 4    1  0.5640637E-004  0.6500000E+04  0.7818608E-02  0.7223770E-01
         52   -1    0    0    0    0  0.00000000000E+00  0.00000000000E+00  0.64930732323E+04  0.65000000000E+04  0.30000000000E+03 0. -1.
        -52   -1    0    0    0    0 -0.00000000000E+00 -0.00000000000E+00 -0.64930732323E+04  0.65000000000E+04  0.30000000000E+03 0.  1.
     100001    1    1    2    0    0 -0.78008620400E+03  0.42982864285E+03  0.64369295943E+04  0.65000000000E+04  0.15050000000E+03 0. -1.
     100001    1    1    2    0    0  0.78008620400E+03 -0.42982864285E+03 -0.64369295943E+04  0.65000000000E+04  0.15050000000E+03 0.  1.
</event>
<event>
 4    1  0.5640637E-004  0.6500000E+04  0.7818608E-02  0.7223770E-01
         52   -1    0    0    0    0  0.00000000000E+00  0.00000000000E+00  0.64930732323E+04  0.65000000000E+04  0.30000000000E+03 0.  1.
        -52   -1    0    0    0    0 -0.00000000000E+00 -0.00000000000E+00 -0.64930732323E+04  0.65000000000E+04  0.30000000000E+03 0. -1.
     100001    1    1    2    0    0 -0.37110396537E+03  0.35461182257E+03 -0.64779535389E+04  0.65000000000E+04  0.15050000000E+03 0. -1.
     100001    1    1    2    0    0  0.37110396537E+03 -0.35461182257E+03  0.64779535389E+04  0.65000000000E+04  0.15050000000E+03 0.  1.
</event>
<event>
 4    1  0.5640637E-004  0.6500000E+04  0.7818608E-02  0.7223770E-01
         52   -1    0    0    0    0  0.00000000000E+00  0.00000000000E+00  0.64930732323E+04  0.65000000000E+04  0.30000000000E+03 0.  1.
        -52   -1    0    0    0    0 -0.00000000000E+00 -0.00000000000E+00 -0.64930732323E+04  0.65000000000E+04  0.30000000000E+03 0. -1.
     100001    1    1    2    0    0  0.34487267202E+03  0.32391410898E+03 -0.64810101250E+04  0.65000000000E+04  0.15050000000E+03 0. -1.
     100001    1    1    2    0    0 -0.34487267202E+03 -0.32391410898E+03  0.64810101250E+04  0.65000000000E+04  0.15050000000E+03 0.  1.
</event>
<event>
 4    1  0.5640637E-004  0.6500000E+04  0.7818608E-02  0.7223770E-01
         52   -1    0    0    0    0  0.00000000000E+00  0.00000000000E+00  0.64930732323E+04  0.65000000000E+04  0.30000000000E+03 0. -1.
        -52   -1    0    0    0    0 -0.00000000000E+00 -0.00000000000E+00 -0.64930732323E+04  0.65000000000E+04  0.30000000000E+03 0.  1.
     100001    1    1    2    0    0  0.17416241841E+04 -0.13749712580E+04  0.61076631367E+04  0.65000000000E+04  0.15050000000E+03 0. -1.
     100001    1    1    2    0    0 -0.17416241841E+04  0.13749712580E+04 -0.61076631367E+04  0.65000000000E+04  0.15050000000E+03 0.  1.
</event>
<event>
 4    1  0.5640637E-004  0.6500000E+04  0.7818608E-02  0.7223770E-01
         52   -1    0    0    0    0  0.00000000000E+00  0.00000000000E+00  0.64930732323E+04  0.65000000000E+04  0.30000000000E+03 0.  1.
        -52   -1    0    0    0    0 -0.00000000000E+00 -0.00000000000E+00 -0.64930732323E+04  0.65000000000E+04  0.30000000000E+03 0. -1.
     100001    1    1    2    0    0  0.59394368317E+02 -0.56189342488E+03 -0.64736464097E+04  0.65000000000E+04  0.15050000000E+03 0. -1.
     100001    1    1    2    0    0 -0.59394368317E+02  0.56189342488E+03  0.64736464097E+04  0.65000000000E+04  0.15050000000E+03 0.  1.
</event>
<event>
 4    1  0.5640637E-004  0.6500000E+04  0.7818608E-02  0.7223770E-01
         52   -1    0    0    0    0  0.00000000000E+00  0.00000000000E+00  0.64930732323E+04  0.65000000000E+04  0.30000000000E+03 0.  1.
        -52   -1    0    0    0    0 -0.00000000000E+00 -0.00000000000E+00 -0.64930732323E+04  0.65000000000E+04  0.30000000000E+03 0.  1.
     100001    1    1    2    0    0  0.30457140147E+02  0.21567665095E+04  0.61298271049E+04  0.65000000000E+04  0.15050000000E+03 0.  1.
     100001    1    1    2    0    0 -0.30457140147E+02 -0.21567665095E+04 -0.61298271049E+04  0.65000000000E+04  0.15050000000E+03 0.  1.
</event>
<event>
 4    1  0.5640637E-004  0.6500000E+04  0.7818608E-02  0.7223770E-01
         52   -1    0    0    0    0  0.00000000000E+00  0.00000000000E+00  0.64930732323E+04  0.65000000000E+04  0.30000000000E+03 0.  1.
        -52   -1    0    0    0    0 -0.00000000000E+00 -0.00000000000E+00 -0.64930732323E+04  0.65000000000E+04  0.30000000000E+03 0. -1.
     100001    1    1    2    0    0 -0.29938033856E+02  0.91406187458E+03 -0.64335794356E+04  0.65000000000E+04  0.15050000000E+03 0. -1.
     100001    1    1    2    0    0  0.29938033856E+02 -0.91406187458E+03  0.64335794356E+04  0.65000000000E+04  0.15050000000E+03 0.  1.
</event>
<event>
 4    1  0.5640637E-004  0.6500000E+04  0.7818608E-02  0.7223770E-01
         52   -1    0    0    0    0  0.00000000000E+00  0.00000000000E+00  0.64930732323E+04  0.65000000000E+04  0.30000000000E+03 0. -1.
        -52   -1    0    0    0    0 -0.00000000000E+00 -0.00000000000E+00 -0.64930732323E+04  0.65000000000E+04  0.30000000000E+03 0.  1.
     100001    1    1    2    0    0  0.42650933693E+02  0.21643706192E+04 -0.61270735650E+04  0.65000000000E+04  0.15050000000E+03 0.  1.
     100001    1    1    2    0    0 -0.42650933693E+02 -0.21643706192E+04  0.61270735650E+04  0.65000000000E+04  0.15050000000E+03 0. -1.
</event>
<event>
 4    1  0.5640637E-004  0.6500000E+04  0.7818608E-02  0.7223770E-01
         52   -1    0    0    0    0  0.00000000000E+00  0.00000000000E+00  0.64930732323E+04  0.65000000000E+04  0.30000000000E+03 0.  1.
        -52   -1    0    0    0    0 -0.00000000000E+00 -0.00000000000E+00 -0.64930732323E+04  0.65000000000E+04  0.30000000000E+03 0. -1.
     100001    1    1    2    0    0 -0.48195084670E+04 -0.39783868441E+04  0.17810463233E+04  0.65000000000E+04  0.15050000000E+03 0.  1.
     100001    1    1    2    0    0  0.48195084670E+04  0.39783868441E+04 -0.17810463233E+04  0.65000000000E+04  0.15050000000E+03 0. -1.
</event>
<event>
 4    1  0.5640637E-004  0.6500000E+04  0.7818608E-02  0.7223770E-01
         52   -1    0    0    0    0  0.00000000000E+00  0.00000000000E+00  0.64930732323E+04  0.65000000000E+04  0.30000000000E+03 0. -1.
        -52   -1    0    0    0    0 -0.00000000000E+00 -0.00000000000E+00 -0.64930732323E+04  0.65000000000E+04  0.30000000000E+03 0.  1.
     100001    1    1    2    0    0 -0.77233657266E+03 -0.32233366602E+03 -0.64441405149E+04  0.65000000000E+04  0.15050000000E+03 0.  1.
     100001    1    1    2    0    0  0.77233657266E+03  0.32233366602E+03  0.64441405149E+04  0.65000000000E+04  0.15050000000E+03 0. -1.
</event>
<event>
 4    1  0.5640637E-004  0.6500000E+04  0.7818608E-02  0.7223770E-01
         52   -1    0    0    0    0  0.00000000000E+00  0.00000000000E+00  0.64930732323E+04  0.65000000000E+04  0.30000000000E+03 0. -1.
        -52   -1    0    0    0    0 -0.00000000000E+00 -0.00000000000E+00 -0.64930732323E+04  0.65000000000E+04  0.30000000000E+03 0. -1.
     100001    1    1    2    0    0 -0.57943573792E+03 -0.11718928399E+02  0.64723617515E+04  0.65000000000E+04  0.15050000000E+03 0. -1.
     100001    1    1    2    0    0  0.57943573792E+03  0.11718928399E+02 -0.64723617515E+04  0.65000000000E+04  0.15050000000E+03 0. -1.
</event>
<event>
 4    1  0.5640637E-004  0.6500000E+04  0.7818608E-02  0.7223770E-01
         52   -1    0    0    0    0  0.00000000000E+00  0.00000000000E+00  0.64930732323E+04  0.65000000000E+04  0.30000000000E+03 0. -1.
        -52   -1    0    0    0    0 -0.00000000000E+00 -0.00000000000E+00 -0.64930732323E+04  0.65000000000E+04  0.30000000000E+03 0.  1.
     100001    1    1    2    0    0  0.11870923728E+04 -0.88296840526E+02 -0.63882990785E+04  0.65000000000E+04  0.15050000000E+03 0.  1.
     100001    1    1    2    0    0 -0.11870923728E+04  0.88296840526E+02  0.63882990785E+04  0.65000000000E+04  0.15050000000E+03 0. -1.
</event>
<event>
 4    1  0.5640637E-004  0.6500000E+04  0.7818608E-02  0.7223770E-01
         52   -1    0    0    0    0  0.00000000000E+00  0.00000000000E+00  0.64930732323E+04  0.65000000000E+04  0.30000000000E+03 0.  1.
        -52   -1    0    0    0    0 -0.00000000000E+00 -0.00000000000E+00 -0.64930732323E+04  0.65000000000E+04  0.30000000000E+03 0.  1.
     100001    1    1    2    0    0  0.71013998716E+02  0.54019470983E+02 -0.64976448548E+04  0.65000000000E+04  0.15050000000E+03 0.  1.
     100001    1    1    2    0    0 -0.71013998716E+02 -0.54019470983E+02  0.64976448548E+04  0.65000000000E+04  0.15050000000E+03 0.  1.
</event>
<event>
 4    1  0.5640637E-004  0.6500000E+04  0.7818608E-02  0.7223770E-01
         52   -1    0    0    0    0  0.00000000000E+00  0.00000000000E+00  0.64930732323E+04  0.65000000000E+04  0.30000000000E+03 0.  1.
        -52   -1    0    0    0    0 -0.00000000000E+00 -0.00000000000E+00 -0.64930732323E+04  0.65000000000E+04  0.30000000000E+03 0. -1.
     100001    1    1    2    0    0  0.11288883592E+04 -0.39636292314E+03  0.63871634749E+04  0.65000000000E+04  0.15050000000E+03 0.  1.
     100001    1    1    2    0    0 -0.11288883592E+04  0.39636292314E+03 -0.63871634749E+04  0.65000000000E+04  0.15050000000E+03 0. -1.
</event>
<event>
 4    1  0.5640637E-004  0.6500000E+04  0.7818608E-02  0.7223770E-01
         52   -1    0    0    0    0  0.00000000000E+00  0.00000000000E+00  0.64930732323E+04  0.65000000000E+04  0.30000000000E+03 0. -1.
        -52   -1    0    0    0    0 -0.00000000000E+00 -0.00000000000E+00 -0.64930732323E+04  0.65000000000E+04  0.30000000000E+03 0.  1.
     100001    1    1    2    0    0  0.97101142886E+01  0.72838410699E+03 -0.64572991302E+04  0.65000000000E+04  0.15050000000E+03 0.  1.
     100001    1    1    2    0    0 -0.97101142886E+01 -0.72838410699E+03  0.64572991302E+04  0.65000000000E+04  0.15050000000E+03 0. -1.
</event>
<event>
 4    1  0.5640637E-004  0.6500000E+04  0.7818608E-02  0.7223770E-01
         52   -1    0    0    0    0  0.00000000000E+00  0.00000000000E+00  0.64930732323E+04  0.65000000000E+04  0.30000000000E+03 0. -1.
        -52   -1    0    0    0    0 -0.00000000000E+00 -0.00000000000E+00 -0.64930732323E+04  0.65000000000E+04  0.30000000000E+03 0.  1.
     100001    1    1    2    0    0  0.42562664590E+03 -0.15630588559E+04  0.62930945267E+04  0.65000000000E+04  0.15050000000E+03 0. -1.
     100001    1    1    2    0    0 -0.42562664590E+03  0.15630588559E+04 -0.62930945267E+04  0.65000000000E+04  0.15050000000E+03 0.  1.
</event>
<event>
 4    1  0.5640637E-004  0.6500000E+04  0.7818608E-02  0.7223770E-01
         52   -1    0    0    0    0  0.00000000000E+00  0.00000000000E+00  0.64930732323E+04  0.65000000000E+04  0.30000000000E+03 0.  1.
        -52   -1    0    0    0    0 -0.00000000000E+00 -0.00000000000E+00 -0.64930732323E+04  0.65000000000E+04  0.30000000000E+03 0. -1.
     100001    1    1    2    0    0  0.76530340226E+03 -0.24086529674E+03 -0.64485381569E+04  0.65000000000E+04  0.15050000000E+03 0. -1.
     100001    1    1    2    0    0 -0.76530340226E+03  0.24086529674E+03  0.64485381569E+04  0.65000000000E+04  0.15050000000E+03 0.  1.
</event>
<event>
 4    1  0.5640637E-004  0.6500000E+04  0.7818608E-02  0.7223770E-01
         52   -1    0    0    0    0  0.00000000000E+00  0.00000000000E+00  0.64930732323E+04  0.65000000000E+04  0.30000000000E+03 0. -1.
        -52   -1    0    0    0    0 -0.00000000000E+00 -0.00000000000E+00 -0.64930732323E+04  0.65000000000E+04  0.30000000000E+03 0.  1.
     100001    1    1    2    0    0  0.14972862029E+04  0.73151137689E+03 -0.62809533418E+04  0.65000000000E+04  0.15050000000E+03 0.  1.
     100001    1    1    2    0    0 -0.14972862029E+04 -0.73151137689E+03  0.62809533418E+04  0.65000000000E+04  0.15050000000E+03 0. -1.
</event>
<event>
 4    1  0.5640637E-004  0.6500000E+04  0.7818608E-02  0.7223770E-01
         52   -1    0    0    0    0  0.00000000000E+00  0.00000000000E+00  0.64930732323E+04  0.65000000000E+04  0.30000000000E+03 0. -1.
        -52   -1    0    0    0    0 -0.00000000000E+00 -0.00000000000E+00 -0.64930732323E+04  0.65000000000E+04  0.30000000000E+03 0.  1.
     100001    1    1    2    0    0 -0.16370432444E+02 -0.16754917275E+04 -0.62785196687E+04  0.65000000000E+04  0.15050000000E+03 0.  1.
     100001    1    1    2    0    0  0.16370432444E+02  0.16754917275E+04  0.62785196687E+04  0.65000000000E+04  0.15050000000E+03 0. -1.
</event>
<event>
 4    1  0.5640637E-004  0.6500000E+04  0.7818608E-02  0.7223770E-01
         52   -1    0    0    0    0  0.00000000000E+00  0.00000000000E+00  0.64930732323E+04  0.65000000000E+04  0.30000000000E+03 0.  1.
        -52   -1    0    0    0    0 -0.00000000000E+00 -0.00000000000E+00 -0.64930732323E+04  0.65000000000E+04  0.30000000000E+03 0. -1.
     100001    1    1    2    0    0  0.41229250373E+03 -0.14623154061E+04 -0.63181483280E+04  0.65000000000E+04  0.15050000000E+03 0. -1.
     100001    1    1    2    0    0 -0.41229250373E+03  0.14623154061E+04  0.63181483280E+04  0.65000000000E+04  0.15050000000E+03 0.  1.
</event>
<event>
 4    1  0.5640637E-004  0.6500000E+04  0.7818608E-02  0.7223770E-01
         52   -1    0    0    0    0  0.00000000000E+00  0.00000000000E+00  0.64930732323E+04  0.65000000000E+04  0.30000000000E+03 0. -1.
        -52   -1    0    0    0    0 -0.00000000000E+00 -0.00000000000E+00 -0.64930732323E+04  0.65000000000E+04  0.30000000000E+03 0. -1.
     100001    1    1    2    0    0 -0.14519641422E+03  0.50896805270E+03  0.64766672967E+04  0.65000000000E+04  0.15050000000E+03 0. -1.
     100001    1    1    2    0    0  0.14519641422E+03 -0.50896805270E+03 -0.64766672967E+04  0.65000000000E+04  0.15050000000E+03 0. -1.
</event>
<event>
 4    1  0.5640637E-004  0.6500000E+04  0.7818608E-02  0.7223770E-01
         52   -1    0    0    0    0  0.00000000000E+00  0.00000000000E+00  0.64930732323E+04  0.65000000000E+04  0.30000000000E+03 0. -1.
        -52   -1    0    0    0    0 -0.00000000000E+00 -0.00000000000E+00 -0.64930732323E+04  0.65000000000E+04  0.30000000000E+03 0.  1.
     100001    1    1    2    0    0  0.18201395693E+03  0.23316816141E+03 -0.64915216458E+04  0.65000000000E+04  0.15050000000E+03 0.  1.
     100001    1    1    2    0    0 -0.18201395693E+03 -0.23316816141E+03  0.64915216458E+04  0.65000000000E+04  0.15050000000E+03 0. -1.
</event>
<event>
 4    1  0.5640637E-004  0.6500000E+04  0.7818608E-02  0.7223770E-01
         52   -1    0    0    0    0  0.00000000000E+00  0.00000000000E+00  0.64930732323E+04  0.65000000000E+04  0.30000000000E+03 0. -1.
        -52   -1    0    0    0    0 -0.00000000000E+00 -0.00000000000E+00 -0.64930732323E+04  0.65000000000E+04  0.30000000000E+03 0.  1.
     100001    1    1    2    0    0 -0.23398177752E+04  0.58384200706E+04  0.16326216978E+04  0.65000000000E+04  0.15050000000E+03 0. -1.
     100001    1    1    2    0    0  0.23398177752E+04 -0.58384200706E+04 -0.16326216978E+04  0.65000000000E+04  0.15050000000E+03 0.  1.
</event>
<event>
 4    1  0.5640637E-004  0.6500000E+04  0.7818608E-02  0.7223770E-01
         52   -1    0    0    0    0  0.00000000000E+00  0.00000000000E+00  0.64930732323E+04  0.65000000000E+04  0.30000000000E+03 0. -1.
        -52   -1    0    0    0    0 -0.00000000000E+00 -0.00000000000E+00 -0.64930732323E+04  0.65000000000E+04  0.30000000000E+03 0.  1.
     100001    1    1    2    0    0  0.46796253711E+04 -0.44666610304E+04 -0.61432513849E+03  0.65000000000E+04  0.15050000000E+03 0.  1.
     100001    1    1    2    0    0 -0.46796253711E+04  0.44666610304E+04  0.61432513849E+03  0.65000000000E+04  0.15050000000E+03 0. -1.
</event>
<event>
 4    1  0.5640637E-004  0.6500000E+04  0.7818608E-02  0.7223770E-01
         52   -1    0    0    0    0  0.00000000000E+00  0.00000000000E+00  0.64930732323E+04  0.65000000000E+04  0.30000000000E+03 0.  1.
        -52   -1    0    0    0    0 -0.00000000000E+00 -0.00000000000E+00 -0.64930732323E+04  0.65000000000E+04  0.30000000000E+03 0.  1.
     100001    1    1    2    0    0  0.27657411340E+03 -0.44380850451E+02  0.64922174062E+04  0.65000000000E+04  0.15050000000E+03 0.  1.
     100001    1    1    2    0    0 -0.27657411340E+03  0.44380850451E+02 -0.64922174062E+04  0.65000000000E+04  0.15050000000E+03 0.  1.
</event>
<event>
 4    1  0.5640637E-004  0.6500000E+04  0.7818608E-02  0.7223770E-01
         52   -1    0    0    0    0  0.00000000000E+00  0.00000000000E+00  0.64930732323E+04  0.65000000000E+04  0.30000000000E+03 0. -1.
        -52   -1    0    0    0    0 -0.00000000000E+00 -0.00000000000E+00 -0.64930732323E+04  0.65000000000E+04  0.30000000000E+03 0. -1.
     100001    1    1    2    0    0  0.58156558608E+02  0.21309575016E+02  0.64979622549E+04  0.65000000000E+04  0.15050000000E+03 0. -1.
     100001    1    1    2    0    0 -0.58156558608E+02 -0.21309575016E+02 -0.64979622549E+04  0.65000000000E+04  0.15050000000E+03 0. -1.
</event>
<event>
 4    1  0.5640637E-004  0.6500000E+04  0.7818608E-02  0.7223770E-01
         52   -1    0    0    0    0  0.00000000000E+00  0.00000000000E+00  0.64930732323E+04  0.65000000000E+04  0.30000000000E+03 0.  1.
        -52   -1    0    0    0    0 -0.00000000000E+00 -0.00000000000E+00 -0.64930732323E+04  0.65000000000E+04  0.30000000000E+03 0. -1.
     100001    1    1    2    0    0  0.44761773892E+04  0.27163161896E+04  0.38487416240E+04  0.65000000000E+04  0.15050000000E+03 0.  1.
     100001    1    1    2    0    0 -0.44761773892E+04 -0.27163161896E+04 -0.38487416240E+04  0.65000000000E+04  0.15050000000E+03 0. -1.
</event>
<event>
 4    1  0.5640637E-004  0.6500000E+04  0.7818608E-02  0.7223770E-01
         52   -1    0    0    0    0  0.00000000000E+00  0.00000000000E+00  0.64930732323E+04  0.65000000000E+04  0.30000000000E+03 0. -1.
        -52   -1    0    0    0    0 -0.00000000000E+00 -0.00000000000E+00 -0.64930732323E+04  0.65000000000E+04  0.30000000000E+03 0.  1.
     100001    1    1    2    0    0 -0.32500842857E+04 -0.56059465059E+04 -0.48750964993E+03  0.65000000000E+04  0.15050000000E+03 0. -1.
     100001    1    1    2    0    0  0.32500842857E+04  0.56059465059E+04  0.48750964993E+03  0.65000000000E+04  0.15050000000E+03 0.  1.
</event>
<event>
 4    1  0.5640637E-004  0.6500000E+04  0.7818608E-02  0.7223770E-01
         52   -1    0    0    0    0  0.00000000000E+00  0.00000000000E+00  0.64930732323E+04  0.65000000000E+04  0.30000000000E+03 0. -1.
        -52   -1    0    0    0    0 -0.00000000000E+00 -0.00000000000E+00 -0.64930732323E+04  0.65000000000E+04  0.30000000000E+03 0.  1.
     100001    1    1    2    0    0  0.22772308240E+04  0.36637091549E+04  0.48599181837E+04  0.65000000000E+04  0.15050000000E+03 0. -1.
     100001    1    1    2    0    0 -0.22772308240E+04 -0.36637091549E+04 -0.48599181837E+04  0.65000000000E+04  0.15050000000E+03 0.  1.
</event>
<event>
 4    1  0.5640637E-004  0.6500000E+04  0.7818608E-02  0.7223770E-01
         52   -1    0    0    0    0  0.00000000000E+00  0.00000000000E+00  0.64930732323E+04  0.65000000000E+04  0.30000000000E+03 0. -1.
        -52   -1    0    0    0    0 -0.00000000000E+00 -0.00000000000E+00 -0.64930732323E+04  0.65000000000E+04  0.30000000000E+03 0.  1.
     100001    1    1    2    0    0  0.76356489185E+03  0.15641997356E+03  0.64513449139E+04  0.65000000000E+04  0.15050000000E+03 0. -1.
     100001    1    1    2    0    0 -0.76356489185E+03 -0.15641997356E+03 -0.64513449139E+04  0.65000000000E+04  0.15050000000E+03 0.  1.
</event>
<event>
 4    1  0.5640637E-004  0.6500000E+04  0.7818608E-02  0.7223770E-01
         52   -1    0    0    0    0  0.00000000000E+00  0.00000000000E+00  0.64930732323E+04  0.65000000000E+04  0.30000000000E+03 0. -1.
        -52   -1    0    0    0    0 -0.00000000000E+00 -0.00000000000E+00 -0.64930732323E+04  0.65000000000E+04  0.30000000000E+03 0.  1.
     100001    1    1    2    0    0  0.64028408035E+03 -0.44232294037E+04 -0.47172478935E+04  0.65000000000E+04  0.15050000000E+03 0.  1.
     100001    1    1    2    0    0 -0.64028408035E+03  0.44232294037E+04  0.47172478935E+04  0.65000000000E+04  0.15050000000E+03 0. -1.
</event>
<event>
 4    1  0.5640637E-004  0.6500000E+04  0.7818608E-02  0.7223770E-01
         52   -1    0    0    0    0  0.00000000000E+00  0.00000000000E+00  0.64930732323E+04  0.65000000000E+04  0.30000000000E+03 0.  1.
        -52   -1    0    0    0    0 -0.00000000000E+00 -0.00000000000E+00 -0.64930732323E+04  0.65000000000E+04  0.30000000000E+03 0. -1.
     100001    1    1    2    0    0 -0.26487988280E+04  0.21200584378E+04  0.55422528577E+04  0.65000000000E+04  0.15050000000E+03 0.  1.
     100001    1    1    2    0    0  0.26487988280E+04 -0.21200584378E+04 -0.55422528577E+04  0.65000000000E+04  0.15050000000E+03 0. -1.
</event>
<event>
 4    1  0.5640637E-004  0.6500000E+04  0.7818608E-02  0.7223770E-01
         52   -1    0    0    0    0  0.00000000000E+00  0.00000000000E+00  0.64930732323E+04  0.65000000000E+04  0.30000000000E+03 0.  1.
        -52   -1    0    0    0    0 -0.00000000000E+00 -0.00000000000E+00 -0.64930732323E+04  0.65000000000E+04  0.30000000000E+03 0. -1.
     100001    1    1    2    0    0 -0.36682401015E+04  0.36285562767E+04  0.39503093112E+04  0.65000000000E+04  0.15050000000E+03 0.  1.
     100001    1    1    2    0    0  0.36682401015E+04 -0.36285562767E+04 -0.39503093112E+04  0.65000000000E+04  0.15050000000E+03 0. -1.
</event>
<event>
 4    1  0.5640637E-004  0.6500000E+04  0.7818608E-02  0.7223770E-01
         52   -1    0    0    0    0  0.00000000000E+00  0.00000000000E+00  0.64930732323E+04  0.65000000000E+04  0.30000000000E+03 0.  1.
        -52   -1    0    0    0    0 -0.00000000000E+00 -0.00000000000E+00 -0.64930732323E+04  0.65000000000E+04  0.30000000000E+03 0. -1.
     100001    1    1    2    0    0  0.35851603057E+03  0.19909871086E+03 -0.64853045965E+04  0.65000000000E+04  0.15050000000E+03 0. -1.
     100001    1    1    2    0    0 -0.35851603057E+03 -0.19909871086E+03  0.64853045965E+04  0.65000000000E+04  0.15050000000E+03 0.  1.
</event>
<event>
 4    1  0.5640637E-004  0.6500000E+04  0.7818608E-02  0.7223770E-01
         52   -1    0    0    0    0  0.00000000000E+00  0.00000000000E+00  0.64930732323E+04  0.65000000000E+04  0.30000000000E+03 0.  1.
        -52   -1    0    0    0    0 -0.00000000000E+00 -0.00000000000E+00 -0.64930732323E+04  0.65000000000E+04  0.30000000000E+03 0. -1.
     100001    1    1    2    0    0  0.33598633699E+03 -0.10107932163E+03 -0.64887784599E+04  0.65000000000E+04  0.15050000000E+03 0. -1.
     100001    1    1    2    0    0 -0.33598633699E+03  0.10107932163E+03  0.64887784599E+04  0.65000000000E+04  0.15050000000E+03 0.  1.
</event>
<event>
 4    1  0.5640637E-004  0.6500000E+04  0.7818608E-02  0.7223770E-01
         52   -1    0    0    0    0  0.00000000000E+00  0.00000000000E+00  0.64930732323E+04  0.65000000000E+04  0.30000000000E+03 0. -1.
        -52   -1    0    0    0    0 -0.00000000000E+00 -0.00000000000E+00 -0.64930732323E+04  0.65000000000E+04  0.30000000000E+03 0.  1.
     100001    1    1    2    0    0 -0.44309572768E+04  0.40070461597E+04  0.25568630068E+04  0.65000000000E+04  0.15050000000E+03 0. -1.
     100001    1    1    2    0    0  0.44309572768E+04 -0.40070461597E+04 -0.25568630068E+04  0.65000000000E+04  0.15050000000E+03 0.  1.
</event>
<event>
 4    1  0.5640637E-004  0.6500000E+04  0.7818608E-02  0.7223770E-01
         52   -1    0    0    0    0  0.00000000000E+00  0.00000000000E+00  0.64930732323E+04  0.65000000000E+04  0.30000000000E+03 0.  1.
        -52   -1    0    0    0    0 -0.00000000000E+00 -0.00000000000E+00 -0.64930732323E+04  0.65000000000E+04  0.30000000000E+03 0. -1.
     100001    1    1    2    0    0 -0.41067823499E+02  0.20176629484E+04 -0.61769490374E+04  0.65000000000E+04  0.15050000000E+03 0. -1.
     100001    1    1    2    0    0  0.41067823499E+02 -0.20176629484E+04  0.61769490374E+04  0.65000000000E+04  0.15050000000E+03 0.  1.
</event>
<event>
 4    1  0.5640637E-004  0.6500000E+04  0.7818608E-02  0.7223770E-01
         52   -1    0    0    0    0  0.00000000000E+00  0.00000000000E+00  0.64930732323E+04  0.65000000000E+04  0.30000000000E+03 0. -1.
        -52   -1    0    0    0    0 -0.00000000000E+00 -0.00000000000E+00 -0.64930732323E+04  0.65000000000E+04  0.30000000000E+03 0.  1.
     100001    1    1    2    0    0 -0.24109087087E+04 -0.12987145200E+04 -0.58930645291E+04  0.65000000000E+04  0.15050000000E+03 0.  1.
     100001    1    1    2    0    0  0.24109087087E+04  0.12987145200E+04  0.58930645291E+04  0.65000000000E+04  0.15050000000E+03 0. -1.
</event>
<event>
 4    1  0.5640637E-004  0.6500000E+04  0.7818608E-02  0.7223770E-01
         52   -1    0    0    0    0  0.00000000000E+00  0.00000000000E+00  0.64930732323E+04  0.65000000000E+04  0.30000000000E+03 0.  1.
        -52   -1    0    0    0    0 -0.00000000000E+00 -0.00000000000E+00 -0.64930732323E+04  0.65000000000E+04  0.30000000000E+03 0. -1.
     100001    1    1    2    0    0  0.95197282800E+03 -0.23159265925E+03 -0.64239755856E+04  0.65000000000E+04  0.15050000000E+03 0. -1.
     100001    1    1    2    0    0 -0.95197282800E+03  0.23159265925E+03  0.64239755856E+04  0.65000000000E+04  0.15050000000E+03 0.  1.
</event>
<event>
 4    1  0.5640637E-004  0.6500000E+04  0.7818608E-02  0.7223770E-01
         52   -1    0    0    0    0  0.00000000000E+00  0.00000000000E+00  0.64930732323E+04  0.65000000000E+04  0.30000000000E+03 0.  1.
        -52   -1    0    0    0    0 -0.00000000000E+00 -0.00000000000E+00 -0.64930732323E+04  0.65000000000E+04  0.30000000000E+03 0. -1.
     100001    1    1    2    0    0 -0.54423206656E+03  0.12662322671E+04  0.63504186518E+04  0.65000000000E+04  0.15050000000E+03 0.  1.
     100001    1    1    2    0    0  0.54423206656E+03 -0.12662322671E+04 -0.63504186518E+04  0.65000000000E+04  0.15050000000E+03 0. -1.
</event>
<event>
 4    1  0.5640637E-004  0.6500000E+04  0.7818608E-02  0.7223770E-01
         52   -1    0    0    0    0  0.00000000000E+00  0.00000000000E+00  0.64930732323E+04  0.65000000000E+04  0.30000000000E+03 0.  1.
        -52   -1    0    0    0    0 -0.00000000000E+00 -0.00000000000E+00 -0.64930732323E+04  0.65000000000E+04  0.30000000000E+03 0. -1.
     100001    1    1    2    0    0 -0.69681301129E+03  0.23740705527E+03  0.64564261993E+04  0.65000000000E+04  0.15050000000E+03 0.  1.
     100001    1    1    2    0    0  0.69681301129E+03 -0.23740705527E+03 -0.64564261993E+04  0.65000000000E+04  0.15050000000E+03 0. -1.
</event>
<event>
 4    1  0.5640637E-004  0.6500000E+04  0.7818608E-02  0.7223770E-01
         52   -1    0    0    0    0  0.00000000000E+00  0.00000000000E+00  0.64930732323E+04  0.65000000000E+04  0.30000000000E+03 0. -1.
        -52   -1    0    0    0    0 -0.00000000000E+00 -0.00000000000E+00 -0.64930732323E+04  0.65000000000E+04  0.30000000000E+03 0. -1.
     100001    1    1    2    0    0 -0.67504760414E+02  0.26055871771E+03 -0.64926806492E+04  0.65000000000E+04  0.15050000000E+03 0. -1.
     100001    1    1    2    0    0  0.67504760414E+02 -0.26055871771E+03  0.64926806492E+04  0.65000000000E+04  0.15050000000E+03 0. -1.
</event>
<event>
 4    1  0.5640637E-004  0.6500000E+04  0.7818608E-02  0.7223770E-01
         52   -1    0    0    0    0  0.00000000000E+00  0.00000000000E+00  0.64930732323E+04  0.65000000000E+04  0.30000000000E+03 0. -1.
        -52   -1    0    0    0    0 -0.00000000000E+00 -0.00000000000E+00 -0.64930732323E+04  0.65000000000E+04  0.30000000000E+03 0. -1.
     100001    1    1    2    0    0  0.35083978899E+03 -0.50371881560E+02  0.64885841187E+04  0.65000000000E+04  0.15050000000E+03 0. -1.
     100001    1    1    2    0    0 -0.35083978899E+03  0.50371881560E+02 -0.64885841187E+04  0.65000000000E+04  0.15050000000E+03 0. -1.
</event>
<event>
 4    1  0.5640637E-004  0.6500000E+04  0.7818608E-02  0.7223770E-01
         52   -1    0    0    0    0  0.00000000000E+00  0.00000000000E+00  0.64930732323E+04  0.65000000000E+04  0.30000000000E+03 0.  1.
        -52   -1    0    0    0    0 -0.00000000000E+00 -0.00000000000E+00 -0.64930732323E+04  0.65000000000E+04  0.30000000000E+03 0.  1.
     100001    1    1    2    0    0  0.42021486269E+02  0.27981301239E+02 -0.64980613256E+04  0.65000000000E+04  0.15050000000E+03 0.  1.
     100001    1    1    2    0    0 -0.42021486269E+02 -0.27981301239E+02  0.64980613256E+04  0.65000000000E+04  0.15050000000E+03 0.  1.
</event>
<event>
 4    1  0.5640637E-004  0.6500000E+04  0.7818608E-02  0.7223770E-01
         52   -1    0    0    0    0  0.00000000000E+00  0.00000000000E+00  0.64930732323E+04  0.65000000000E+04  0.30000000000E+03 0. -1.
        -52   -1    0    0    0    0 -0.00000000000E+00 -0.00000000000E+00 -0.64930732323E+04  0.65000000000E+04  0.30000000000E+03 0.  1.
     100001    1    1    2    0    0  0.53144188571E+03 -0.12265745042E+04 -0.63592793820E+04  0.65000000000E+04  0.15050000000E+03 0.  1.
     100001    1    1    2    0    0 -0.53144188571E+03  0.12265745042E+04  0.63592793820E+04  0.65000000000E+04  0.15050000000E+03 0. -1.
</event>
<event>
 4    1  0.5640637E-004  0.6500000E+04  0.7818608E-02  0.7223770E-01
         52   -1    0    0    0    0  0.00000000000E+00  0.00000000000E+00  0.64930732323E+04  0.65000000000E+04  0.30000000000E+03 0.  1.
        -52   -1    0    0    0    0 -0.00000000000E+00 -0.00000000000E+00 -0.64930732323E+04  0.65000000000E+04  0.30000000000E+03 0. -1.
     100001    1    1    2    0    0  0.15672409107E+04 -0.50012163507E+04  0.38417366765E+04  0.65000000000E+04  0.15050000000E+03 0.  1.
     100001    1    1    2    0    0 -0.15672409107E+04  0.50012163507E+04 -0.38417366765E+04  0.65000000000E+04  0.15050000000E+03 0. -1.
</event>
<event>
 4    1  0.5640637E-004  0.6500000E+04  0.7818608E-02  0.7223770E-01
         52   -1    0    0    0    0  0.00000000000E+00  0.00000000000E+00  0.64930732323E+04  0.65000000000E+04  0.30000000000E+03 0. -1.
        -52   -1    0    0    0    0 -0.00000000000E+00 -0.00000000000E+00 -0.64930732323E+04  0.65000000000E+04  0.30000000000E+03 0.  1.
     100001    1    1    2    0    0 -0.14028904162E+04  0.54472632785E+03  0.63215916870E+04  0.65000000000E+04  0.15050000000E+03 0. -1.
     100001    1    1    2    0    0  0.14028904162E+04 -0.54472632785E+03 -0.63215916870E+04  0.65000000000E+04  0.15050000000E+03 0.  1.
</event>
<event>
 4    1  0.5640637E-004  0.6500000E+04  0.7818608E-02  0.7223770E-01
         52   -1    0    0    0    0  0.00000000000E+00  0.00000000000E+00  0.64930732323E+04  0.65000000000E+04  0.30000000000E+03 0. -1.
        -52   -1    0    0    0    0 -0.00000000000E+00 -0.00000000000E+00 -0.64930732323E+04  0.65000000000E+04  0.30000000000E+03 0.  1.
     100001    1    1    2    0    0  0.95399755736E+02  0.81873493362E+03  0.64457677390E+04  0.65000000000E+04  0.15050000000E+03 0. -1.
     100001    1    1    2    0    0 -0.95399755736E+02 -0.81873493362E+03 -0.64457677390E+04  0.65000000000E+04  0.15050000000E+03 0.  1.
</event>
<event>
 4    1  0.5640637E-004  0.6500000E+04  0.7818608E-02  0.7223770E-01
         52   -1    0    0    0    0  0.00000000000E+00  0.00000000000E+00  0.64930732323E+04  0.65000000000E+04  0.30000000000E+03 0. -1.
        -52   -1    0    0    0    0 -0.00000000000E+00 -0.00000000000E+00 -0.64930732323E+04  0.65000000000E+04  0.30000000000E+03 0.  1.
     100001    1    1    2    0    0  0.20078189718E+04  0.15915540599E+04  0.59718479888E+04  0.65000000000E+04  0.15050000000E+03 0. -1.
     100001    1    1    2    0    0 -0.20078189718E+04 -0.15915540599E+04 -0.59718479888E+04  0.65000000000E+04  0.15050000000E+03 0.  1.
</event>
<event>
 4    1  0.5640637E-004  0.6500000E+04  0.7818608E-02  0.7223770E-01
         52   -1    0    0    0    0  0.00000000000E+00  0.00000000000E+00  0.64930732323E+04  0.65000000000E+04  0.30000000000E+03 0. -1.
        -52   -1    0    0    0    0 -0.00000000000E+00 -0.00000000000E+00 -0.64930732323E+04  0.65000000000E+04  0.30000000000E+03 0.  1.
     100001    1    1    2    0    0  0.15461819940E+03  0.15214809603E+04 -0.63157373797E+04  0.65000000000E+04  0.15050000000E+03 0.  1.
     100001    1    1    2    0    0 -0.15461819940E+03 -0.15214809603E+04  0.63157373797E+04  0.65000000000E+04  0.15050000000E+03 0. -1.
</event>
<event>
 4    1  0.5640637E-004  0.6500000E+04  0.7818608E-02  0.7223770E-01
         52   -1    0    0    0    0  0.00000000000E+00  0.00000000000E+00  0.64930732323E+04  0.65000000000E+04  0.30000000000E+03 0. -1.
        -52   -1    0    0    0    0 -0.00000000000E+00 -0.00000000000E+00 -0.64930732323E+04  0.65000000000E+04  0.30000000000E+03 0. -1.
     100001    1    1    2    0    0 -0.20961529147E+03 -0.95909983287E+02 -0.64941675721E+04  0.65000000000E+04  0.15050000000E+03 0. -1.
     100001    1    1    2    0    0  0.20961529147E+03  0.95909983287E+02  0.64941675721E+04  0.65000000000E+04  0.15050000000E+03 0. -1.
</event>
<event>
 4    1  0.5640637E-004  0.6500000E+04  0.7818608E-02  0.7223770E-01
         52   -1    0    0    0    0  0.00000000000E+00  0.00000000000E+00  0.64930732323E+04  0.65000000000E+04  0.30000000000E+03 0.  1.
        -52   -1    0    0    0    0 -0.00000000000E+00 -0.00000000000E+00 -0.64930732323E+04  0.65000000000E+04  0.30000000000E+03 0. -1.
     100001    1    1    2    0    0 -0.10246277934E+04  0.23524538418E+03  0.64126552413E+04  0.65000000000E+04  0.15050000000E+03 0.  1.
     100001    1    1    2    0    0  0.10246277934E+04 -0.23524538418E+03 -0.64126552413E+04  0.65000000000E+04  0.15050000000E+03 0. -1.
</event>
<event>
 4    1  0.5640637E-004  0.6500000E+04  0.7818608E-02  0.7223770E-01
         52   -1    0    0    0    0  0.00000000000E+00  0.00000000000E+00  0.64930732323E+04  0.65000000000E+04  0.30000000000E+03 0.  1.
        -52   -1    0    0    0    0 -0.00000000000E+00 -0.00000000000E+00 -0.64930732323E+04  0.65000000000E+04  0.30000000000E+03 0. -1.
     100001    1    1    2    0    0  0.74990086789E+03 -0.50466969440E+03 -0.64350840661E+04  0.65000000000E+04  0.15050000000E+03 0. -1.
     100001    1    1    2    0    0 -0.74990086789E+03  0.50466969440E+03  0.64350840661E+04  0.65000000000E+04  0.15050000000E+03 0.  1.
</event>
<event>
 4    1  0.5640637E-004  0.6500000E+04  0.7818608E-02  0.7223770E-01
         52   -1    0    0    0    0  0.00000000000E+00  0.00000000000E+00  0.64930732323E+04  0.65000000000E+04  0.30000000000E+03 0. -1.
        -52   -1    0    0    0    0 -0.00000000000E+00 -0.00000000000E+00 -0.64930732323E+04  0.65000000000E+04  0.30000000000E+03 0.  1.
     100001    1    1    2    0    0 -0.15450739979E+04  0.60051216605E+03  0.62832699472E+04  0.65000000000E+04  0.15050000000E+03 0. -1.
     100001    1    1    2    0    0  0.15450739979E+04 -0.60051216605E+03 -0.62832699472E+04  0.65000000000E+04  0.15050000000E+03 0.  1.
</event>
<event>
 4    1  0.5640637E-004  0.6500000E+04  0.7818608E-02  0.7223770E-01
         52   -1    0    0    0    0  0.00000000000E+00  0.00000000000E+00  0.64930732323E+04  0.65000000000E+04  0.30000000000E+03 0.  1.
        -52   -1    0    0    0    0 -0.00000000000E+00 -0.00000000000E+00 -0.64930732323E+04  0.65000000000E+04  0.30000000000E+03 0. -1.
     100001    1    1    2    0    0 -0.24459272832E+04 -0.19000081822E+04  0.57126839912E+04  0.65000000000E+04  0.15050000000E+03 0.  1.
     100001    1    1    2    0    0  0.24459272832E+04  0.19000081822E+04 -0.57126839912E+04  0.65000000000E+04  0.15050000000E+03 0. -1.
</event>
<event>
 4    1  0.5640637E-004  0.6500000E+04  0.7818608E-02  0.7223770E-01
         52   -1    0    0    0    0  0.00000000000E+00  0.00000000000E+00  0.64930732323E+04  0.65000000000E+04  0.30000000000E+03 0.  1.
        -52   -1    0    0    0    0 -0.00000000000E+00 -0.00000000000E+00 -0.64930732323E+04  0.65000000000E+04  0.30000000000E+03 0. -1.
     100001    1    1    2    0    0  0.41722674628E+04  0.19950831589E+04 -0.45649947599E+04  0.65000000000E+04  0.15050000000E+03 0. -1.
     100001    1    1    2    0    0 -0.41722674628E+04 -0.19950831589E+04  0.45649947599E+04  0.65000000000E+04  0.15050000000E+03 0.  1.
</event>
<event>
 4    1  0.5640637E-004  0.6500000E+04  0.7818608E-02  0.7223770E-01
         52   -1    0    0    0    0  0.00000000000E+00  0.00000000000E+00  0.64930732323E+04  0.65000000000E+04  0.30000000000E+03 0.  1.
        -52   -1    0    0    0    0 -0.00000000000E+00 -0.00000000000E+00 -0.64930732323E+04  0.65000000000E+04  0.30000000000E+03 0. -1.
     100001    1    1    2    0    0  0.14384522111E+04  0.23252879959E+04  0.58950182971E+04  0.65000000000E+04  0.15050000000E+03 0.  1.
     100001    1    1    2    0    0 -0.14384522111E+04 -0.23252879959E+04 -0.58950182971E+04  0.65000000000E+04  0.15050000000E+03 0. -1.
</event>
<event>
 4    1  0.5640637E-004  0.6500000E+04  0.7818608E-02  0.7223770E-01
         52   -1    0    0    0    0  0.00000000000E+00  0.00000000000E+00  0.64930732323E+04  0.65000000000E+04  0.30000000000E+03 0.  1.
        -52   -1    0    0    0    0 -0.00000000000E+00 -0.00000000000E+00 -0.64930732323E+04  0.65000000000E+04  0.30000000000E+03 0. -1.
     100001    1    1    2    0    0  0.11163475526E+04 -0.21442050678E+02 -0.64016137130E+04  0.65000000000E+04  0.15050000000E+03 0. -1.
     100001    1    1    2    0    0 -0.11163475526E+04  0.21442050678E+02  0.64016137130E+04  0.65000000000E+04  0.15050000000E+03 0.  1.
</event>
<event>
 4    1  0.5640637E-004  0.6500000E+04  0.7818608E-02  0.7223770E-01
         52   -1    0    0    0    0  0.00000000000E+00  0.00000000000E+00  0.64930732323E+04  0.65000000000E+04  0.30000000000E+03 0. -1.
        -52   -1    0    0    0    0 -0.00000000000E+00 -0.00000000000E+00 -0.64930732323E+04  0.65000000000E+04  0.30000000000E+03 0.  1.
     100001    1    1    2    0    0 -0.19681513023E+04  0.14785382433E+04  0.60139550102E+04  0.65000000000E+04  0.15050000000E+03 0. -1.
     100001    1    1    2    0    0  0.19681513023E+04 -0.14785382433E+04 -0.60139550102E+04  0.65000000000E+04  0.15050000000E+03 0.  1.
</event>
<event>
 4    1  0.5640637E-004  0.6500000E+04  0.7818608E-02  0.7223770E-01
         52   -1    0    0    0    0  0.00000000000E+00  0.00000000000E+00  0.64930732323E+04  0.65000000000E+04  0.30000000000E+03 0.  1.
        -52   -1    0    0    0    0 -0.00000000000E+00 -0.00000000000E+00 -0.64930732323E+04  0.65000000000E+04  0.30000000000E+03 0. -1.
     100001    1    1    2    0    0  0.16629615907E+04 -0.18444343085E+04 -0.60049954687E+04  0.65000000000E+04  0.15050000000E+03 0. -1.
     100001    1    1    2    0    0 -0.16629615907E+04  0.18444343085E+04  0.60049954687E+04  0.65000000000E+04  0.15050000000E+03 0.  1.
</event>
<event>
 4    1  0.5640637E-004  0.6500000E+04  0.7818608E-02  0.7223770E-01
         52   -1    0    0    0    0  0.00000000000E+00  0.00000000000E+00  0.64930732323E+04  0.65000000000E+04  0.30000000000E+03 0.  1.
        -52   -1    0    0    0    0 -0.00000000000E+00 -0.00000000000E+00 -0.64930732323E+04  0.65000000000E+04  0.30000000000E+03 0. -1.
     100001    1    1    2    0    0 -0.50050932522E+02  0.87213641362E+03  0.64392719099E+04  0.65000000000E+04  0.15050000000E+03 0.  1.
     100001    1    1    2    0    0  0.50050932522E+02 -0.87213641362E+03 -0.64392719099E+04  0.65000000000E+04  0.15050000000E+03 0. -1.
</event>
<event>
 4    1  0.5640637E-004  0.6500000E+04  0.7818608E-02  0.7223770E-01
         52   -1    0    0    0    0  0.00000000000E+00  0.00000000000E+00  0.64930732323E+04  0.65000000000E+04  0.30000000000E+03 0.  1.
        -52   -1    0    0    0    0 -0.00000000000E+00 -0.00000000000E+00 -0.64930732323E+04  0.65000000000E+04  0.30000000000E+03 0. -1.
     100001    1    1    2    0    0  0.22255460950E+04 -0.61043362435E+04  0.10664593361E+03  0.65000000000E+04  0.15050000000E+03 0. -1.
     100001    1    1    2    0    0 -0.22255460950E+04  0.61043362435E+04 -0.10664593361E+03  0.65000000000E+04  0.15050000000E+03 0.  1.
</event>
<event>
 4    1  0.5640637E-004  0.6500000E+04  0.7818608E-02  0.7223770E-01
         52   -1    0    0    0    0  0.00000000000E+00  0.00000000000E+00  0.64930732323E+04  0.65000000000E+04  0.30000000000E+03 0. -1.
        -52   -1    0    0    0    0 -0.00000000000E+00 -0.00000000000E+00 -0.64930732323E+04  0.65000000000E+04  0.30000000000E+03 0.  1.
     100001    1    1    2    0    0  0.74588492808E+03 -0.17122014323E+03 -0.64530371986E+04  0.65000000000E+04  0.15050000000E+03 0.  1.
     100001    1    1    2    0    0 -0.74588492808E+03  0.17122014323E+03  0.64530371986E+04  0.65000000000E+04  0.15050000000E+03 0. -1.
</event>
<event>
 4    1  0.5640637E-004  0.6500000E+04  0.7818608E-02  0.7223770E-01
         52   -1    0    0    0    0  0.00000000000E+00  0.00000000000E+00  0.64930732323E+04  0.65000000000E+04  0.30000000000E+03 0.  1.
        -52   -1    0    0    0    0 -0.00000000000E+00 -0.00000000000E+00 -0.64930732323E+04  0.65000000000E+04  0.30000000000E+03 0. -1.
     100001    1    1    2    0    0 -0.63944327819E+03  0.96189082015E+02 -0.64660041528E+04  0.65000000000E+04  0.15050000000E+03 0. -1.
     100001    1    1    2    0    0  0.63944327819E+03 -0.96189082015E+02  0.64660041528E+04  0.65000000000E+04  0.15050000000E+03 0.  1.
</event>
<event>
 4    1  0.5640637E-004  0.6500000E+04  0.7818608E-02  0.7223770E-01
         52   -1    0    0    0    0  0.00000000000E+00  0.00000000000E+00  0.64930732323E+04  0.65000000000E+04  0.30000000000E+03 0.  1.
        -52   -1    0    0    0    0 -0.00000000000E+00 -0.00000000000E+00 -0.64930732323E+04  0.65000000000E+04  0.30000000000E+03 0. -1.
     100001    1    1    2    0    0 -0.30885580478E+03  0.23162639172E+03  0.64867794056E+04  0.65000000000E+04  0.15050000000E+03 0.  1.
     100001    1    1    2    0    0  0.30885580478E+03 -0.23162639172E+03 -0.64867794056E+04  0.65000000000E+04  0.15050000000E+03 0. -1.
</event>
<event>
 4    1  0.5640637E-004  0.6500000E+04  0.7818608E-02  0.7223770E-01
         52   -1    0    0    0    0  0.00000000000E+00  0.00000000000E+00  0.64930732323E+04  0.65000000000E+04  0.30000000000E+03 0.  1.
        -52   -1    0    0    0    0 -0.00000000000E+00 -0.00000000000E+00 -0.64930732323E+04  0.65000000000E+04  0.30000000000E+03 0. -1.
     100001    1    1    2    0    0 -0.42373907834E+04 -0.45151362260E+04 -0.19711453422E+04  0.65000000000E+04  0.15050000000E+03 0. -1.
     100001    1    1    2    0    0  0.42373907834E+04  0.45151362260E+04  0.19711453422E+04  0.65000000000E+04  0.15050000000E+03 0.  1.
</event>
<event>
 4    1  0.5640637E-004  0.6500000E+04  0.7818608E-02  0.7223770E-01
         52   -1    0    0    0    0  0.00000000000E+00  0.00000000000E+00  0.64930732323E+04  0.65000000000E+04  0.30000000000E+03 0. -1.
        -52   -1    0    0    0    0 -0.00000000000E+00 -0.00000000000E+00 -0.64930732323E+04  0.65000000000E+04  0.30000000000E+03 0.  1.
     100001    1    1    2    0    0 -0.18630240120E+04  0.22723598276E+04  0.57959358256E+04  0.65000000000E+04  0.15050000000E+03 0. -1.
     100001    1    1    2    0    0  0.18630240120E+04 -0.22723598276E+04 -0.57959358256E+04  0.65000000000E+04  0.15050000000E+03 0.  1.
</event>
<event>
 4    1  0.5640637E-004  0.6500000E+04  0.7818608E-02  0.7223770E-01
         52   -1    0    0    0    0  0.00000000000E+00  0.00000000000E+00  0.64930732323E+04  0.65000000000E+04  0.30000000000E+03 0. -1.
        -52   -1    0    0    0    0 -0.00000000000E+00 -0.00000000000E+00 -0.64930732323E+04  0.65000000000E+04  0.30000000000E+03 0.  1.
     100001    1    1    2    0    0 -0.46868042372E+04  0.72496466840E+03  0.44424815162E+04  0.65000000000E+04  0.15050000000E+03 0. -1.
     100001    1    1    2    0    0  0.46868042372E+04 -0.72496466840E+03 -0.44424815162E+04  0.65000000000E+04  0.15050000000E+03 0.  1.
</event>
<event>
 4    1  0.5640637E-004  0.6500000E+04  0.7818608E-02  0.7223770E-01
         52   -1    0    0    0    0  0.00000000000E+00  0.00000000000E+00  0.64930732323E+04  0.65000000000E+04  0.30000000000E+03 0.  1.
        -52   -1    0    0    0    0 -0.00000000000E+00 -0.00000000000E+00 -0.64930732323E+04  0.65000000000E+04  0.30000000000E+03 0. -1.
     100001    1    1    2    0    0  0.96515217653E+03 -0.68963554161E+02 -0.64258131823E+04  0.65000000000E+04  0.15050000000E+03 0. -1.
     100001    1    1    2    0    0 -0.96515217653E+03  0.68963554161E+02  0.64258131823E+04  0.65000000000E+04  0.15050000000E+03 0.  1.
</event>
<event>
 4    1  0.5640637E-004  0.6500000E+04  0.7818608E-02  0.7223770E-01
         52   -1    0    0    0    0  0.00000000000E+00  0.00000000000E+00  0.64930732323E+04  0.65000000000E+04  0.30000000000E+03 0. -1.
        -52   -1    0    0    0    0 -0.00000000000E+00 -0.00000000000E+00 -0.64930732323E+04  0.65000000000E+04  0.30000000000E+03 0.  1.
     100001    1    1    2    0    0 -0.47231623374E+03  0.22892902856E+02 -0.64810294738E+04  0.65000000000E+04  0.15050000000E+03 0.  1.
     100001    1    1    2    0    0  0.47231623374E+03 -0.22892902856E+02  0.64810294738E+04  0.65000000000E+04  0.15050000000E+03 0. -1.
</event>
<event>
 4    1  0.5640637E-004  0.6500000E+04  0.7818608E-02  0.7223770E-01
         52   -1    0    0    0    0  0.00000000000E+00  0.00000000000E+00  0.64930732323E+04  0.65000000000E+04  0.30000000000E+03 0. -1.
        -52   -1    0    0    0    0 -0.00000000000E+00 -0.00000000000E+00 -0.64930732323E+04  0.65000000000E+04  0.30000000000E+03 0.  1.
     100001    1    1    2    0    0  0.21754978661E+04  0.14903990357E+04 -0.59391303656E+04  0.65000000000E+04  0.15050000000E+03 0.  1.
     100001    1    1    2    0    0 -0.21754978661E+04 -0.14903990357E+04  0.59391303656E+04  0.65000000000E+04  0.15050000000E+03 0. -1.
</event>
<event>
 4    1  0.5640637E-004  0.6500000E+04  0.7818608E-02  0.7223770E-01
         52   -1    0    0    0    0  0.00000000000E+00  0.00000000000E+00  0.64930732323E+04  0.65000000000E+04  0.30000000000E+03 0.  1.
        -52   -1    0    0    0    0 -0.00000000000E+00 -0.00000000000E+00 -0.64930732323E+04  0.65000000000E+04  0.30000000000E+03 0. -1.
     100001    1    1    2    0    0  0.16818560837E+04 -0.49445572765E+03  0.62573335693E+04  0.65000000000E+04  0.15050000000E+03 0.  1.
     100001    1    1    2    0    0 -0.16818560837E+04  0.49445572765E+03 -0.62573335693E+04  0.65000000000E+04  0.15050000000E+03 0. -1.
</event>
<event>
 4    1  0.5640637E-004  0.6500000E+04  0.7818608E-02  0.7223770E-01
         52   -1    0    0    0    0  0.00000000000E+00  0.00000000000E+00  0.64930732323E+04  0.65000000000E+04  0.30000000000E+03 0.  1.
        -52   -1    0    0    0    0 -0.00000000000E+00 -0.00000000000E+00 -0.64930732323E+04  0.65000000000E+04  0.30000000000E+03 0. -1.
     100001    1    1    2    0    0  0.68290218313E+02 -0.46542955723E+04 -0.45343377600E+04  0.65000000000E+04  0.15050000000E+03 0. -1.
     100001    1    1    2    0    0 -0.68290218313E+02  0.46542955723E+04  0.45343377600E+04  0.65000000000E+04  0.15050000000E+03 0.  1.
</event>
<event>
 4    1  0.5640637E-004  0.6500000E+04  0.7818608E-02  0.7223770E-01
         52   -1    0    0    0    0  0.00000000000E+00  0.00000000000E+00  0.64930732323E+04  0.65000000000E+04  0.30000000000E+03 0.  1.
        -52   -1    0    0    0    0 -0.00000000000E+00 -0.00000000000E+00 -0.64930732323E+04  0.65000000000E+04  0.30000000000E+03 0. -1.
     100001    1    1    2    0    0 -0.34191589312E+04 -0.35383152113E+04  0.42446469133E+04  0.65000000000E+04  0.15050000000E+03 0.  1.
     100001    1    1    2    0    0  0.34191589312E+04  0.35383152113E+04 -0.42446469133E+04  0.65000000000E+04  0.15050000000E+03 0. -1.
</event>
<event>
 4    1  0.5640637E-004  0.6500000E+04  0.7818608E-02  0.7223770E-01
         52   -1    0    0    0    0  0.00000000000E+00  0.00000000000E+00  0.64930732323E+04  0.65000000000E+04  0.30000000000E+03 0.  1.
        -52   -1    0    0    0    0 -0.00000000000E+00 -0.00000000000E+00 -0.64930732323E+04  0.65000000000E+04  0.30000000000E+03 0. -1.
     100001    1    1    2    0    0 -0.77702605983E+02  0.13020858591E+04  0.63659943819E+04  0.65000000000E+04  0.15050000000E+03 0.  1.
     100001    1    1    2    0    0  0.77702605983E+02 -0.13020858591E+04 -0.63659943819E+04  0.65000000000E+04  0.15050000000E+03 0. -1.
</event>
<event>
 4    1  0.5640637E-004  0.6500000E+04  0.7818608E-02  0.7223770E-01
         52   -1    0    0    0    0  0.00000000000E+00  0.00000000000E+00  0.64930732323E+04  0.65000000000E+04  0.30000000000E+03 0.  1.
        -52   -1    0    0    0    0 -0.00000000000E+00 -0.00000000000E+00 -0.64930732323E+04  0.65000000000E+04  0.30000000000E+03 0. -1.
     100001    1    1    2    0    0 -0.81301840204E+03  0.32238695329E+03  0.64391317334E+04  0.65000000000E+04  0.15050000000E+03 0.  1.
     100001    1    1    2    0    0  0.81301840204E+03 -0.32238695329E+03 -0.64391317334E+04  0.65000000000E+04  0.15050000000E+03 0. -1.
</event>
<event>
 4    1  0.5640637E-004  0.6500000E+04  0.7818608E-02  0.7223770E-01
         52   -1    0    0    0    0  0.00000000000E+00  0.00000000000E+00  0.64930732323E+04  0.65000000000E+04  0.30000000000E+03 0. -1.
        -52   -1    0    0    0    0 -0.00000000000E+00 -0.00000000000E+00 -0.64930732323E+04  0.65000000000E+04  0.30000000000E+03 0.  1.
     100001    1    1    2    0    0 -0.29658269105E+03  0.17944290895E+03 -0.64890052165E+04  0.65000000000E+04  0.15050000000E+03 0.  1.
     100001    1    1    2    0    0  0.29658269105E+03 -0.17944290895E+03  0.64890052165E+04  0.65000000000E+04  0.15050000000E+03 0. -1.
</event>
<event>
 4    1  0.5640637E-004  0.6500000E+04  0.7818608E-02  0.7223770E-01
         52   -1    0    0    0    0  0.00000000000E+00  0.00000000000E+00  0.64930732323E+04  0.65000000000E+04  0.30000000000E+03 0.  1.
        -52   -1    0    0    0    0 -0.00000000000E+00 -0.00000000000E+00 -0.64930732323E+04  0.65000000000E+04  0.30000000000E+03 0. -1.
     100001    1    1    2    0    0 -0.13930924573E+04  0.29671949024E+03  0.63402366438E+04  0.65000000000E+04  0.15050000000E+03 0.  1.
     100001    1    1    2    0    0  0.13930924573E+04 -0.29671949024E+03 -0.63402366438E+04  0.65000000000E+04  0.15050000000E+03 0. -1.
</event>
<event>
 4    1  0.5640637E-004  0.6500000E+04  0.7818608E-02  0.7223770E-01
         52   -1    0    0    0    0  0.00000000000E+00  0.00000000000E+00  0.64930732323E+04  0.65000000000E+04  0.30000000000E+03 0. -1.
        -52   -1    0    0    0    0 -0.00000000000E+00 -0.00000000000E+00 -0.64930732323E+04  0.65000000000E+04  0.30000000000E+03 0.  1.
     100001    1    1    2    0    0  0.40223357704E+02  0.43332417283E+04  0.48423907273E+04  0.65000000000E+04  0.15050000000E+03 0. -1.
     100001    1    1    2    0    0 -0.40223357704E+02 -0.43332417283E+04 -0.48423907273E+04  0.65000000000E+04  0.15050000000E+03 0.  1.
</event>
<event>
 4    1  0.5640637E-004  0.6500000E+04  0.7818608E-02  0.7223770E-01
         52   -1    0    0    0    0  0.00000000000E+00  0.00000000000E+00  0.64930732323E+04  0.65000000000E+04  0.30000000000E+03 0. -1.
        -52   -1    0    0    0    0 -0.00000000000E+00 -0.00000000000E+00 -0.64930732323E+04  0.65000000000E+04  0.30000000000E+03 0.  1.
     100001    1    1    2    0    0 -0.42781243969E+02 -0.23907306399E+04  0.60423444558E+04  0.65000000000E+04  0.15050000000E+03 0. -1.
     100001    1    1    2    0    0  0.42781243969E+02  0.23907306399E+04 -0.60423444558E+04  0.65000000000E+04  0.15050000000E+03 0.  1.
</event>
<event>
 4    1  0.5640637E-004  0.6500000E+04  0.7818608E-02  0.7223770E-01
         52   -1    0    0    0    0  0.00000000000E+00  0.00000000000E+00  0.64930732323E+04  0.65000000000E+04  0.30000000000E+03 0.  1.
        -52   -1    0    0    0    0 -0.00000000000E+00 -0.00000000000E+00 -0.64930732323E+04  0.65000000000E+04  0.30000000000E+03 0. -1.
     100001    1    1    2    0    0  0.91165023413E+03 -0.29077059374E+04 -0.57394677264E+04  0.65000000000E+04  0.15050000000E+03 0. -1.
     100001    1    1    2    0    0 -0.91165023413E+03  0.29077059374E+04  0.57394677264E+04  0.65000000000E+04  0.15050000000E+03 0.  1.
</event>
<event>
 4    1  0.5640637E-004  0.6500000E+04  0.7818608E-02  0.7223770E-01
         52   -1    0    0    0    0  0.00000000000E+00  0.00000000000E+00  0.64930732323E+04  0.65000000000E+04  0.30000000000E+03 0. -1.
        -52   -1    0    0    0    0 -0.00000000000E+00 -0.00000000000E+00 -0.64930732323E+04  0.65000000000E+04  0.30000000000E+03 0.  1.
     100001    1    1    2    0    0 -0.22048694361E+03 -0.49968720902E+02  0.64943235510E+04  0.65000000000E+04  0.15050000000E+03 0. -1.
     100001    1    1    2    0    0  0.22048694361E+03  0.49968720902E+02 -0.64943235510E+04  0.65000000000E+04  0.15050000000E+03 0.  1.
</event>
<event>
 4    1  0.5640637E-004  0.6500000E+04  0.7818608E-02  0.7223770E-01
         52   -1    0    0    0    0  0.00000000000E+00  0.00000000000E+00  0.64930732323E+04  0.65000000000E+04  0.30000000000E+03 0. -1.
        -52   -1    0    0    0    0 -0.00000000000E+00 -0.00000000000E+00 -0.64930732323E+04  0.65000000000E+04  0.30000000000E+03 0.  1.
     100001    1    1    2    0    0 -0.33251633214E+04 -0.55756897737E+04 -0.28691842715E+03  0.65000000000E+04  0.15050000000E+03 0.  1.
     100001    1    1    2    0    0  0.33251633214E+04  0.55756897737E+04  0.28691842715E+03  0.65000000000E+04  0.15050000000E+03 0. -1.
</event>
<event>
 4    1  0.5640637E-004  0.6500000E+04  0.7818608E-02  0.7223770E-01
         52   -1    0    0    0    0  0.00000000000E+00  0.00000000000E+00  0.64930732323E+04  0.65000000000E+04  0.30000000000E+03 0. -1.
        -52   -1    0    0    0    0 -0.00000000000E+00 -0.00000000000E+00 -0.64930732323E+04  0.65000000000E+04  0.30000000000E+03 0.  1.
     100001    1    1    2    0    0  0.12126630541E+04 -0.39078474500E+03  0.63721335007E+04  0.65000000000E+04  0.15050000000E+03 0. -1.
     100001    1    1    2    0    0 -0.12126630541E+04  0.39078474500E+03 -0.63721335007E+04  0.65000000000E+04  0.15050000000E+03 0.  1.
</event>
<event>
 4    1  0.5640637E-004  0.6500000E+04  0.7818608E-02  0.7223770E-01
         52   -1    0    0    0    0  0.00000000000E+00  0.00000000000E+00  0.64930732323E+04  0.65000000000E+04  0.30000000000E+03 0.  1.
        -52   -1    0    0    0    0 -0.00000000000E+00 -0.00000000000E+00 -0.64930732323E+04  0.65000000000E+04  0.30000000000E+03 0. -1.
     100001    1    1    2    0    0  0.36733752744E+03  0.15045873734E+04  0.63109927687E+04  0.65000000000E+04  0.15050000000E+03 0.  1.
     100001    1    1    2    0    0 -0.36733752744E+03 -0.15045873734E+04 -0.63109927687E+04  0.65000000000E+04  0.15050000000E+03 0. -1.
</event>
<event>
 4    1  0.5640637E-004  0.6500000E+04  0.7818608E-02  0.7223770E-01
         52   -1    0    0    0    0  0.00000000000E+00  0.00000000000E+00  0.64930732323E+04  0.65000000000E+04  0.30000000000E+03 0.  1.
        -52   -1    0    0    0    0 -0.00000000000E+00 -0.00000000000E+00 -0.64930732323E+04  0.65000000000E+04  0.30000000000E+03 0. -1.
     100001    1    1    2    0    0 -0.11000417363E+03  0.42908304873E+03  0.64831424918E+04  0.65000000000E+04  0.15050000000E+03 0.  1.
     100001    1    1    2    0    0  0.11000417363E+03 -0.42908304873E+03 -0.64831424918E+04  0.65000000000E+04  0.15050000000E+03 0. -1.
</event>
<event>
 4    1  0.5640637E-004  0.6500000E+04  0.7818608E-02  0.7223770E-01
         52   -1    0    0    0    0  0.00000000000E+00  0.00000000000E+00  0.64930732323E+04  0.65000000000E+04  0.30000000000E+03 0. -1.
        -52   -1    0    0    0    0 -0.00000000000E+00 -0.00000000000E+00 -0.64930732323E+04  0.65000000000E+04  0.30000000000E+03 0.  1.
     100001    1    1    2    0    0  0.13175235606E+04  0.29199992411E+03  0.63565885081E+04  0.65000000000E+04  0.15050000000E+03 0. -1.
     100001    1    1    2    0    0 -0.13175235606E+04 -0.29199992411E+03 -0.63565885081E+04  0.65000000000E+04  0.15050000000E+03 0.  1.
</event>
<event>
 4    1  0.5640637E-004  0.6500000E+04  0.7818608E-02  0.7223770E-01
         52   -1    0    0    0    0  0.00000000000E+00  0.00000000000E+00  0.64930732323E+04  0.65000000000E+04  0.30000000000E+03 0.  1.
        -52   -1    0    0    0    0 -0.00000000000E+00 -0.00000000000E+00 -0.64930732323E+04  0.65000000000E+04  0.30000000000E+03 0. -1.
     100001    1    1    2    0    0 -0.57899224701E+03  0.85134329775E+03  0.64161773914E+04  0.65000000000E+04  0.15050000000E+03 0.  1.
     100001    1    1    2    0    0  0.57899224701E+03 -0.85134329775E+03 -0.64161773914E+04  0.65000000000E+04  0.15050000000E+03 0. -1.
</event>
<event>
 4    1  0.5640637E-004  0.6500000E+04  0.7818608E-02  0.7223770E-01
         52   -1    0    0    0    0  0.00000000000E+00  0.00000000000E+00  0.64930732323E+04  0.65000000000E+04  0.30000000000E+03 0. -1.
        -52   -1    0    0    0    0 -0.00000000000E+00 -0.00000000000E+00 -0.64930732323E+04  0.65000000000E+04  0.30000000000E+03 0.  1.
     100001    1    1    2    0    0 -0.91837577815E+03  0.98129847728E+03 -0.63577503080E+04  0.65000000000E+04  0.15050000000E+03 0.  1.
     100001    1    1    2    0    0  0.91837577815E+03 -0.98129847728E+03  0.63577503080E+04  0.65000000000E+04  0.15050000000E+03 0. -1.
</event>
<event>
 4    1  0.5640637E-004  0.6500000E+04  0.7818608E-02  0.7223770E-01
         52   -1    0    0    0    0  0.00000000000E+00  0.00000000000E+00  0.64930732323E+04  0.65000000000E+04  0.30000000000E+03 0. -1.
        -52   -1    0    0    0    0 -0.00000000000E+00 -0.00000000000E+00 -0.64930732323E+04  0.65000000000E+04  0.30000000000E+03 0.  1.
     100001    1    1    2    0    0 -0.51092940924E+04 -0.40134475753E+04  0.12125257823E+03  0.65000000000E+04  0.15050000000E+03 0.  1.
     100001    1    1    2    0    0  0.51092940924E+04  0.40134475753E+04 -0.12125257823E+03  0.65000000000E+04  0.15050000000E+03 0. -1.
</event>
<event>
 4    1  0.5640637E-004  0.6500000E+04  0.7818608E-02  0.7223770E-01
         52   -1    0    0    0    0  0.00000000000E+00  0.00000000000E+00  0.64930732323E+04  0.65000000000E+04  0.30000000000E+03 0. -1.
        -52   -1    0    0    0    0 -0.00000000000E+00 -0.00000000000E+00 -0.64930732323E+04  0.65000000000E+04  0.30000000000E+03 0.  1.
     100001    1    1    2    0    0 -0.63511550484E+03  0.26758766395E+03  0.64616077634E+04  0.65000000000E+04  0.15050000000E+03 0. -1.
     100001    1    1    2    0    0  0.63511550484E+03 -0.26758766395E+03 -0.64616077634E+04  0.65000000000E+04  0.15050000000E+03 0.  1.
</event>
<event>
 4    1  0.5640637E-004  0.6500000E+04  0.7818608E-02  0.7223770E-01
         52   -1    0    0    0    0  0.00000000000E+00  0.00000000000E+00  0.64930732323E+04  0.65000000000E+04  0.30000000000E+03 0.  1.
        -52   -1    0    0    0    0 -0.00000000000E+00 -0.00000000000E+00 -0.64930732323E+04  0.65000000000E+04  0.30000000000E+03 0.  1.
     100001    1    1    2    0    0 -0.71658010812E+02 -0.28493421509E+03  0.64916120781E+04  0.65000000000E+04  0.15050000000E+03 0.  1.
     100001    1    1    2    0    0  0.71658010812E+02  0.28493421509E+03 -0.64916120781E+04  0.65000000000E+04  0.15050000000E+03 0.  1.
</event>
<event>
 4    1  0.5640637E-004  0.6500000E+04  0.7818608E-02  0.7223770E-01
         52   -1    0    0    0    0  0.00000000000E+00  0.00000000000E+00  0.64930732323E+04  0.65000000000E+04  0.30000000000E+03 0.  1.
        -52   -1    0    0    0    0 -0.00000000000E+00 -0.00000000000E+00 -0.64930732323E+04  0.65000000000E+04  0.30000000000E+03 0. -1.
     100001    1    1    2    0    0  0.91314631074E+03 -0.64577059144E+03 -0.64012884569E+04  0.65000000000E+04  0.15050000000E+03 0. -1.
     100001    1    1    2    0    0 -0.91314631074E+03  0.64577059144E+03  0.64012884569E+04  0.65000000000E+04  0.15050000000E+03 0.  1.
</event>
<event>
 4    1  0.5640637E-004  0.6500000E+04  0.7818608E-02  0.7223770E-01
         52   -1    0    0    0    0  0.00000000000E+00  0.00000000000E+00  0.64930732323E+04  0.65000000000E+04  0.30000000000E+03 0.  1.
        -52   -1    0    0    0    0 -0.00000000000E+00 -0.00000000000E+00 -0.64930732323E+04  0.65000000000E+04  0.30000000000E+03 0. -1.
     100001    1    1    2    0    0  0.70949920688E+03  0.12530615124E+04  0.63367024130E+04  0.65000000000E+04  0.15050000000E+03 0.  1.
     100001    1    1    2    0    0 -0.70949920688E+03 -0.12530615124E+04 -0.63367024130E+04  0.65000000000E+04  0.15050000000E+03 0. -1.
</event>
<event>
 4    1  0.5640637E-004  0.6500000E+04  0.7818608E-02  0.7223770E-01
         52   -1    0    0    0    0  0.00000000000E+00  0.00000000000E+00  0.64930732323E+04  0.65000000000E+04  0.30000000000E+03 0. -1.
        -52   -1    0    0    0    0 -0.00000000000E+00 -0.00000000000E+00 -0.64930732323E+04  0.65000000000E+04  0.30000000000E+03 0.  1.
     100001    1    1    2    0    0 -0.36499405817E+04  0.48724730831E+04 -0.22725073278E+04  0.65000000000E+04  0.15050000000E+03 0.  1.
     100001    1    1    2    0    0  0.36499405817E+04 -0.48724730831E+04  0.22725073278E+04  0.65000000000E+04  0.15050000000E+03 0. -1.
</event>
<event>
 4    1  0.5640637E-004  0.6500000E+04  0.7818608E-02  0.7223770E-01
         52   -1    0    0    0    0  0.00000000000E+00  0.00000000000E+00  0.64930732323E+04  0.65000000000E+04  0.30000000000E+03 0. -1.
        -52   -1    0    0    0    0 -0.00000000000E+00 -0.00000000000E+00 -0.64930732323E+04  0.65000000000E+04  0.30000000000E+03 0.  1.
     100001    1    1    2    0    0 -0.79449385009E+03  0.69825304528E+03  0.64115966777E+04  0.65000000000E+04  0.15050000000E+03 0. -1.
     100001    1    1    2    0    0  0.79449385009E+03 -0.69825304528E+03 -0.64115966777E+04  0.65000000000E+04  0.15050000000E+03 0.  1.
</event>
<event>
 4    1  0.5640637E-004  0.6500000E+04  0.7818608E-02  0.7223770E-01
         52   -1    0    0    0    0  0.00000000000E+00  0.00000000000E+00  0.64930732323E+04  0.65000000000E+04  0.30000000000E+03 0.  1.
        -52   -1    0    0    0    0 -0.00000000000E+00 -0.00000000000E+00 -0.64930732323E+04  0.65000000000E+04  0.30000000000E+03 0. -1.
     100001    1    1    2    0    0 -0.50308156925E+03  0.13272248768E+03  0.64773948024E+04  0.65000000000E+04  0.15050000000E+03 0.  1.
     100001    1    1    2    0    0  0.50308156925E+03 -0.13272248768E+03 -0.64773948024E+04  0.65000000000E+04  0.15050000000E+03 0. -1.
</event>
<event>
 4    1  0.5640637E-004  0.6500000E+04  0.7818608E-02  0.7223770E-01
         52   -1    0    0    0    0  0.00000000000E+00  0.00000000000E+00  0.64930732323E+04  0.65000000000E+04  0.30000000000E+03 0.  1.
        -52   -1    0    0    0    0 -0.00000000000E+00 -0.00000000000E+00 -0.64930732323E+04  0.65000000000E+04  0.30000000000E+03 0. -1.
     100001    1    1    2    0    0 -0.15801462508E+04 -0.19310000939E+04 -0.60001438494E+04  0.65000000000E+04  0.15050000000E+03 0. -1.
     100001    1    1    2    0    0  0.15801462508E+04  0.19310000939E+04  0.60001438494E+04  0.65000000000E+04  0.15050000000E+03 0.  1.
</event>
<event>
 4    1  0.5640637E-004  0.6500000E+04  0.7818608E-02  0.7223770E-01
         52   -1    0    0    0    0  0.00000000000E+00  0.00000000000E+00  0.64930732323E+04  0.65000000000E+04  0.30000000000E+03 0.  1.
        -52   -1    0    0    0    0 -0.00000000000E+00 -0.00000000000E+00 -0.64930732323E+04  0.65000000000E+04  0.30000000000E+03 0. -1.
     100001    1    1    2    0    0  0.64090994037E+03  0.22944818163E+04  0.60458198280E+04  0.65000000000E+04  0.15050000000E+03 0.  1.
     100001    1    1    2    0    0 -0.64090994037E+03 -0.22944818163E+04 -0.60458198280E+04  0.65000000000E+04  0.15050000000E+03 0. -1.
</event>
<event>
 4    1  0.5640637E-004  0.6500000E+04  0.7818608E-02  0.7223770E-01
         52   -1    0    0    0    0  0.00000000000E+00  0.00000000000E+00  0.64930732323E+04  0.65000000000E+04  0.30000000000E+03 0.  1.
        -52   -1    0    0    0    0 -0.00000000000E+00 -0.00000000000E+00 -0.64930732323E+04  0.65000000000E+04  0.30000000000E+03 0. -1.
     100001    1    1    2    0    0 -0.28516514729E+03 -0.10796017532E+04 -0.64016006313E+04  0.65000000000E+04  0.15050000000E+03 0. -1.
     100001    1    1    2    0    0  0.28516514729E+03  0.10796017532E+04  0.64016006313E+04  0.65000000000E+04  0.15050000000E+03 0.  1.
</event>
<event>
 4    1  0.5640637E-004  0.6500000E+04  0.7818608E-02  0.7223770E-01
         52   -1    0    0    0    0  0.00000000000E+00  0.00000000000E+00  0.64930732323E+04  0.65000000000E+04  0.30000000000E+03 0.  1.
        -52   -1    0    0    0    0 -0.00000000000E+00 -0.00000000000E+00 -0.64930732323E+04  0.65000000000E+04  0.30000000000E+03 0. -1.
     100001    1    1    2    0    0 -0.79731639811E+03 -0.10954466193E+04  0.63554412133E+04  0.65000000000E+04  0.15050000000E+03 0.  1.
     100001    1    1    2    0    0  0.79731639811E+03  0.10954466193E+04 -0.63554412133E+04  0.65000000000E+04  0.15050000000E+03 0. -1.
</event>
<event>
 4    1  0.5640637E-004  0.6500000E+04  0.7818608E-02  0.7223770E-01
         52   -1    0    0    0    0  0.00000000000E+00  0.00000000000E+00  0.64930732323E+04  0.65000000000E+04  0.30000000000E+03 0. -1.
        -52   -1    0    0    0    0 -0.00000000000E+00 -0.00000000000E+00 -0.64930732323E+04  0.65000000000E+04  0.30000000000E+03 0. -1.
     100001    1    1    2    0    0 -0.29601984775E+03 -0.24495278990E+03 -0.64868883242E+04  0.65000000000E+04  0.15050000000E+03 0. -1.
     100001    1    1    2    0    0  0.29601984775E+03  0.24495278990E+03  0.64868883242E+04  0.65000000000E+04  0.15050000000E+03 0. -1.
</event>
<event>
 4    1  0.5640637E-004  0.6500000E+04  0.7818608E-02  0.7223770E-01
         52   -1    0    0    0    0  0.00000000000E+00  0.00000000000E+00  0.64930732323E+04  0.65000000000E+04  0.30000000000E+03 0. -1.
        -52   -1    0    0    0    0 -0.00000000000E+00 -0.00000000000E+00 -0.64930732323E+04  0.65000000000E+04  0.30000000000E+03 0.  1.
     100001    1    1    2    0    0  0.26074391073E+04  0.26183121910E+04  0.53453767240E+04  0.65000000000E+04  0.15050000000E+03 0. -1.
     100001    1    1    2    0    0 -0.26074391073E+04 -0.26183121910E+04 -0.53453767240E+04  0.65000000000E+04  0.15050000000E+03 0.  1.
</event>
<event>
 4    1  0.5640637E-004  0.6500000E+04  0.7818608E-02  0.7223770E-01
         52   -1    0    0    0    0  0.00000000000E+00  0.00000000000E+00  0.64930732323E+04  0.65000000000E+04  0.30000000000E+03 0.  1.
        -52   -1    0    0    0    0 -0.00000000000E+00 -0.00000000000E+00 -0.64930732323E+04  0.65000000000E+04  0.30000000000E+03 0. -1.
     100001    1    1    2    0    0 -0.14225108363E+03 -0.33299285752E+03 -0.64881607668E+04  0.65000000000E+04  0.15050000000E+03 0. -1.
     100001    1    1    2    0    0  0.14225108363E+03  0.33299285752E+03  0.64881607668E+04  0.65000000000E+04  0.15050000000E+03 0.  1.
</event>
<event>
 4    1  0.5640637E-004  0.6500000E+04  0.7818608E-02  0.7223770E-01
         52   -1    0    0    0    0  0.00000000000E+00  0.00000000000E+00  0.64930732323E+04  0.65000000000E+04  0.30000000000E+03 0.  1.
        -52   -1    0    0    0    0 -0.00000000000E+00 -0.00000000000E+00 -0.64930732323E+04  0.65000000000E+04  0.30000000000E+03 0. -1.
     100001    1    1    2    0    0 -0.60548640039E+03  0.63790954683E+04  0.10806835688E+04  0.65000000000E+04  0.15050000000E+03 0. -1.
     100001    1    1    2    0    0  0.60548640039E+03 -0.63790954683E+04 -0.10806835688E+04  0.65000000000E+04  0.15050000000E+03 0.  1.
</event>
<event>
 4    1  0.5640637E-004  0.6500000E+04  0.7818608E-02  0.7223770E-01
         52   -1    0    0    0    0  0.00000000000E+00  0.00000000000E+00  0.64930732323E+04  0.65000000000E+04  0.30000000000E+03 0.  1.
        -52   -1    0    0    0    0 -0.00000000000E+00 -0.00000000000E+00 -0.64930732323E+04  0.65000000000E+04  0.30000000000E+03 0. -1.
     100001    1    1    2    0    0  0.85616310160E+03  0.17021281268E+04  0.62126559806E+04  0.65000000000E+04  0.15050000000E+03 0.  1.
     100001    1    1    2    0    0 -0.85616310160E+03 -0.17021281268E+04 -0.62126559806E+04  0.65000000000E+04  0.15050000000E+03 0. -1.
</event>
<event>
 4    1  0.5640637E-004  0.6500000E+04  0.7818608E-02  0.7223770E-01
         52   -1    0    0    0    0  0.00000000000E+00  0.00000000000E+00  0.64930732323E+04  0.65000000000E+04  0.30000000000E+03 0.  1.
        -52   -1    0    0    0    0 -0.00000000000E+00 -0.00000000000E+00 -0.64930732323E+04  0.65000000000E+04  0.30000000000E+03 0.  1.
     100001    1    1    2    0    0  0.20365909617E+03  0.30834155895E+02  0.64949920691E+04  0.65000000000E+04  0.15050000000E+03 0.  1.
     100001    1    1    2    0    0 -0.20365909617E+03 -0.30834155895E+02 -0.64949920691E+04  0.65000000000E+04  0.15050000000E+03 0.  1.
</event>
<event>
 4    1  0.5640637E-004  0.6500000E+04  0.7818608E-02  0.7223770E-01
         52   -1    0    0    0    0  0.00000000000E+00  0.00000000000E+00  0.64930732323E+04  0.65000000000E+04  0.30000000000E+03 0.  1.
        -52   -1    0    0    0    0 -0.00000000000E+00 -0.00000000000E+00 -0.64930732323E+04  0.65000000000E+04  0.30000000000E+03 0. -1.
     100001    1    1    2    0    0 -0.74611195790E+03  0.84107815801E+03 -0.64002542315E+04  0.65000000000E+04  0.15050000000E+03 0. -1.
     100001    1    1    2    0    0  0.74611195790E+03 -0.84107815801E+03  0.64002542315E+04  0.65000000000E+04  0.15050000000E+03 0.  1.
</event>
<event>
 4    1  0.5640637E-004  0.6500000E+04  0.7818608E-02  0.7223770E-01
         52   -1    0    0    0    0  0.00000000000E+00  0.00000000000E+00  0.64930732323E+04  0.65000000000E+04  0.30000000000E+03 0. -1.
        -52   -1    0    0    0    0 -0.00000000000E+00 -0.00000000000E+00 -0.64930732323E+04  0.65000000000E+04  0.30000000000E+03 0.  1.
     100001    1    1    2    0    0  0.29641574274E+04  0.50736665319E+04 -0.27747123128E+04  0.65000000000E+04  0.15050000000E+03 0.  1.
     100001    1    1    2    0    0 -0.29641574274E+04 -0.50736665319E+04  0.27747123128E+04  0.65000000000E+04  0.15050000000E+03 0. -1.
</event>
<event>
 4    1  0.5640637E-004  0.6500000E+04  0.7818608E-02  0.7223770E-01
         52   -1    0    0    0    0  0.00000000000E+00  0.00000000000E+00  0.64930732323E+04  0.65000000000E+04  0.30000000000E+03 0.  1.
        -52   -1    0    0    0    0 -0.00000000000E+00 -0.00000000000E+00 -0.64930732323E+04  0.65000000000E+04  0.30000000000E+03 0.  1.
     100001    1    1    2    0    0  0.47076351596E+03  0.50240207922E+03  0.64616811754E+04  0.65000000000E+04  0.15050000000E+03 0.  1.
     100001    1    1    2    0    0 -0.47076351596E+03 -0.50240207922E+03 -0.64616811754E+04  0.65000000000E+04  0.15050000000E+03 0.  1.
</event>
<event>
 4    1  0.5640637E-004  0.6500000E+04  0.7818608E-02  0.7223770E-01
         52   -1    0    0    0    0  0.00000000000E+00  0.00000000000E+00  0.64930732323E+04  0.65000000000E+04  0.30000000000E+03 0.  1.
        -52   -1    0    0    0    0 -0.00000000000E+00 -0.00000000000E+00 -0.64930732323E+04  0.65000000000E+04  0.30000000000E+03 0. -1.
     100001    1    1    2    0    0  0.73474022006E+02  0.18658330562E+04 -0.62241961991E+04  0.65000000000E+04  0.15050000000E+03 0. -1.
     100001    1    1    2    0    0 -0.73474022006E+02 -0.18658330562E+04  0.62241961991E+04  0.65000000000E+04  0.15050000000E+03 0.  1.
</event>
<event>
 4    1  0.5640637E-004  0.6500000E+04  0.7818608E-02  0.7223770E-01
         52   -1    0    0    0    0  0.00000000000E+00  0.00000000000E+00  0.64930732323E+04  0.65000000000E+04  0.30000000000E+03 0.  1.
        -52   -1    0    0    0    0 -0.00000000000E+00 -0.00000000000E+00 -0.64930732323E+04  0.65000000000E+04  0.30000000000E+03 0. -1.
     100001    1    1    2    0    0 -0.11895739922E+04  0.31291344108E+03 -0.63807796268E+04  0.65000000000E+04  0.15050000000E+03 0. -1.
     100001    1    1    2    0    0  0.11895739922E+04 -0.31291344108E+03  0.63807796268E+04  0.65000000000E+04  0.15050000000E+03 0.  1.
</event>
<event>
 4    1  0.5640637E-004  0.6500000E+04  0.7818608E-02  0.7223770E-01
         52   -1    0    0    0    0  0.00000000000E+00  0.00000000000E+00  0.64930732323E+04  0.65000000000E+04  0.30000000000E+03 0. -1.
        -52   -1    0    0    0    0 -0.00000000000E+00 -0.00000000000E+00 -0.64930732323E+04  0.65000000000E+04  0.30000000000E+03 0.  1.
     100001    1    1    2    0    0  0.80336425572E+03 -0.19974331392E+04  0.61312491775E+04  0.65000000000E+04  0.15050000000E+03 0. -1.
     100001    1    1    2    0    0 -0.80336425572E+03  0.19974331392E+04 -0.61312491775E+04  0.65000000000E+04  0.15050000000E+03 0.  1.
</event>
<event>
 4    1  0.5640637E-004  0.6500000E+04  0.7818608E-02  0.7223770E-01
         52   -1    0    0    0    0  0.00000000000E+00  0.00000000000E+00  0.64930732323E+04  0.65000000000E+04  0.30000000000E+03 0.  1.
        -52   -1    0    0    0    0 -0.00000000000E+00 -0.00000000000E+00 -0.64930732323E+04  0.65000000000E+04  0.30000000000E+03 0. -1.
     100001    1    1    2    0    0  0.45994495695E+03  0.67609043135E+03 -0.64466039211E+04  0.65000000000E+04  0.15050000000E+03 0. -1.
     100001    1    1    2    0    0 -0.45994495695E+03 -0.67609043135E+03  0.64466039211E+04  0.65000000000E+04  0.15050000000E+03 0.  1.
</event>
<event>
 4    1  0.5640637E-004  0.6500000E+04  0.7818608E-02  0.7223770E-01
         52   -1    0    0    0    0  0.00000000000E+00  0.00000000000E+00  0.64930732323E+04  0.65000000000E+04  0.30000000000E+03 0.  1.
        -52   -1    0    0    0    0 -0.00000000000E+00 -0.00000000000E+00 -0.64930732323E+04  0.65000000000E+04  0.30000000000E+03 0. -1.
     100001    1    1    2    0    0  0.24114498115E+04 -0.34687675518E+03 -0.60242788841E+04  0.65000000000E+04  0.15050000000E+03 0. -1.
     100001    1    1    2    0    0 -0.24114498115E+04  0.34687675518E+03  0.60242788841E+04  0.65000000000E+04  0.15050000000E+03 0.  1.
</event>
<event>
 4    1  0.5640637E-004  0.6500000E+04  0.7818608E-02  0.7223770E-01
         52   -1    0    0    0    0  0.00000000000E+00  0.00000000000E+00  0.64930732323E+04  0.65000000000E+04  0.30000000000E+03 0. -1.
        -52   -1    0    0    0    0 -0.00000000000E+00 -0.00000000000E+00 -0.64930732323E+04  0.65000000000E+04  0.30000000000E+03 0.  1.
     100001    1    1    2    0    0  0.50784702920E+02  0.73815472185E+03  0.64559970780E+04  0.65000000000E+04  0.15050000000E+03 0. -1.
     100001    1    1    2    0    0 -0.50784702920E+02 -0.73815472185E+03 -0.64559970780E+04  0.65000000000E+04  0.15050000000E+03 0.  1.
</event>
<event>
 4    1  0.5640637E-004  0.6500000E+04  0.7818608E-02  0.7223770E-01
         52   -1    0    0    0    0  0.00000000000E+00  0.00000000000E+00  0.64930732323E+04  0.65000000000E+04  0.30000000000E+03 0. -1.
        -52   -1    0    0    0    0 -0.00000000000E+00 -0.00000000000E+00 -0.64930732323E+04  0.65000000000E+04  0.30000000000E+03 0.  1.
     100001    1    1    2    0    0  0.31991745702E+03  0.45138804638E+03 -0.64746622616E+04  0.65000000000E+04  0.15050000000E+03 0.  1.
     100001    1    1    2    0    0 -0.31991745702E+03 -0.45138804638E+03  0.64746622616E+04  0.65000000000E+04  0.15050000000E+03 0. -1.
</event>
<event>
 4    1  0.5640637E-004  0.6500000E+04  0.7818608E-02  0.7223770E-01
         52   -1    0    0    0    0  0.00000000000E+00  0.00000000000E+00  0.64930732323E+04  0.65000000000E+04  0.30000000000E+03 0. -1.
        -52   -1    0    0    0    0 -0.00000000000E+00 -0.00000000000E+00 -0.64930732323E+04  0.65000000000E+04  0.30000000000E+03 0.  1.
     100001    1    1    2    0    0  0.35126444372E+04 -0.52117954968E+04  0.16510198385E+04  0.65000000000E+04  0.15050000000E+03 0. -1.
     100001    1    1    2    0    0 -0.35126444372E+04  0.52117954968E+04 -0.16510198385E+04  0.65000000000E+04  0.15050000000E+03 0.  1.
</event>
<event>
 4    1  0.5640637E-004  0.6500000E+04  0.7818608E-02  0.7223770E-01
         52   -1    0    0    0    0  0.00000000000E+00  0.00000000000E+00  0.64930732323E+04  0.65000000000E+04  0.30000000000E+03 0. -1.
        -52   -1    0    0    0    0 -0.00000000000E+00 -0.00000000000E+00 -0.64930732323E+04  0.65000000000E+04  0.30000000000E+03 0.  1.
     100001    1    1    2    0    0 -0.60589691504E+03  0.32888241053E+03  0.64615845610E+04  0.65000000000E+04  0.15050000000E+03 0. -1.
     100001    1    1    2    0    0  0.60589691504E+03 -0.32888241053E+03 -0.64615845610E+04  0.65000000000E+04  0.15050000000E+03 0.  1.
</event>
<event>
 4    1  0.5640637E-004  0.6500000E+04  0.7818608E-02  0.7223770E-01
         52   -1    0    0    0    0  0.00000000000E+00  0.00000000000E+00  0.64930732323E+04  0.65000000000E+04  0.30000000000E+03 0. -1.
        -52   -1    0    0    0    0 -0.00000000000E+00 -0.00000000000E+00 -0.64930732323E+04  0.65000000000E+04  0.30000000000E+03 0.  1.
     100001    1    1    2    0    0 -0.21076300021E+04 -0.26977907979E+04 -0.55233296421E+04  0.65000000000E+04  0.15050000000E+03 0.  1.
     100001    1    1    2    0    0  0.21076300021E+04  0.26977907979E+04  0.55233296421E+04  0.65000000000E+04  0.15050000000E+03 0. -1.
</event>
<event>
 4    1  0.5640637E-004  0.6500000E+04  0.7818608E-02  0.7223770E-01
         52   -1    0    0    0    0  0.00000000000E+00  0.00000000000E+00  0.64930732323E+04  0.65000000000E+04  0.30000000000E+03 0. -1.
        -52   -1    0    0    0    0 -0.00000000000E+00 -0.00000000000E+00 -0.64930732323E+04  0.65000000000E+04  0.30000000000E+03 0.  1.
     100001    1    1    2    0    0  0.46890451771E+04 -0.43451809607E+04 -0.11660220820E+04  0.65000000000E+04  0.15050000000E+03 0. -1.
     100001    1    1    2    0    0 -0.46890451771E+04  0.43451809607E+04  0.11660220820E+04  0.65000000000E+04  0.15050000000E+03 0.  1.
</event>
<event>
 4    1  0.5640637E-004  0.6500000E+04  0.7818608E-02  0.7223770E-01
         52   -1    0    0    0    0  0.00000000000E+00  0.00000000000E+00  0.64930732323E+04  0.65000000000E+04  0.30000000000E+03 0.  1.
        -52   -1    0    0    0    0 -0.00000000000E+00 -0.00000000000E+00 -0.64930732323E+04  0.65000000000E+04  0.30000000000E+03 0. -1.
     100001    1    1    2    0    0 -0.24254533028E+03  0.38817809553E+04 -0.52057946682E+04  0.65000000000E+04  0.15050000000E+03 0. -1.
     100001    1    1    2    0    0  0.24254533028E+03 -0.38817809553E+04  0.52057946682E+04  0.65000000000E+04  0.15050000000E+03 0.  1.
</event>
<event>
 4    1  0.5640637E-004  0.6500000E+04  0.7818608E-02  0.7223770E-01
         52   -1    0    0    0    0  0.00000000000E+00  0.00000000000E+00  0.64930732323E+04  0.65000000000E+04  0.30000000000E+03 0. -1.
        -52   -1    0    0    0    0 -0.00000000000E+00 -0.00000000000E+00 -0.64930732323E+04  0.65000000000E+04  0.30000000000E+03 0.  1.
     100001    1    1    2    0    0 -0.32033747140E+03 -0.15359130609E+02 -0.64903388010E+04  0.65000000000E+04  0.15050000000E+03 0.  1.
     100001    1    1    2    0    0  0.32033747140E+03  0.15359130609E+02  0.64903388010E+04  0.65000000000E+04  0.15050000000E+03 0. -1.
</event>
<event>
 4    1  0.5640637E-004  0.6500000E+04  0.7818608E-02  0.7223770E-01
         52   -1    0    0    0    0  0.00000000000E+00  0.00000000000E+00  0.64930732323E+04  0.65000000000E+04  0.30000000000E+03 0.  1.
        -52   -1    0    0    0    0 -0.00000000000E+00 -0.00000000000E+00 -0.64930732323E+04  0.65000000000E+04  0.30000000000E+03 0.  1.
     100001    1    1    2    0    0  0.68834589548E+02 -0.10218659198E+03  0.64970893060E+04  0.65000000000E+04  0.15050000000E+03 0.  1.
     100001    1    1    2    0    0 -0.68834589548E+02  0.10218659198E+03 -0.64970893060E+04  0.65000000000E+04  0.15050000000E+03 0.  1.
</event>
<event>
 4    1  0.5640637E-004  0.6500000E+04  0.7818608E-02  0.7223770E-01
         52   -1    0    0    0    0  0.00000000000E+00  0.00000000000E+00  0.64930732323E+04  0.65000000000E+04  0.30000000000E+03 0.  1.
        -52   -1    0    0    0    0 -0.00000000000E+00 -0.00000000000E+00 -0.64930732323E+04  0.65000000000E+04  0.30000000000E+03 0. -1.
     100001    1    1    2    0    0  0.34326003113E+04 -0.52059955435E+03  0.54930484212E+04  0.65000000000E+04  0.15050000000E+03 0.  1.
     100001    1    1    2    0    0 -0.34326003113E+04  0.52059955435E+03 -0.54930484212E+04  0.65000000000E+04  0.15050000000E+03 0. -1.
</event>
<event>
 4    1  0.5640637E-004  0.6500000E+04  0.7818608E-02  0.7223770E-01
         52   -1    0    0    0    0  0.00000000000E+00  0.00000000000E+00  0.64930732323E+04  0.65000000000E+04  0.30000000000E+03 0.  1.
        -52   -1    0    0    0    0 -0.00000000000E+00 -0.00000000000E+00 -0.64930732323E+04  0.65000000000E+04  0.30000000000E+03 0. -1.
     100001    1    1    2    0    0 -0.31087653104E+04 -0.71661834412E+03 -0.56612177262E+04  0.65000000000E+04  0.15050000000E+03 0. -1.
     100001    1    1    2    0    0  0.31087653104E+04  0.71661834412E+03  0.56612177262E+04  0.65000000000E+04  0.15050000000E+03 0.  1.
</event>
<event>
 4    1  0.5640637E-004  0.6500000E+04  0.7818608E-02  0.7223770E-01
         52   -1    0    0    0    0  0.00000000000E+00  0.00000000000E+00  0.64930732323E+04  0.65000000000E+04  0.30000000000E+03 0.  1.
        -52   -1    0    0    0    0 -0.00000000000E+00 -0.00000000000E+00 -0.64930732323E+04  0.65000000000E+04  0.30000000000E+03 0. -1.
     100001    1    1    2    0    0  0.43447945384E+03 -0.39489655203E+03 -0.64716793854E+04  0.65000000000E+04  0.15050000000E+03 0. -1.
     100001    1    1    2    0    0 -0.43447945384E+03  0.39489655203E+03  0.64716793854E+04  0.65000000000E+04  0.15050000000E+03 0.  1.
</event>
<event>
 4    1  0.5640637E-004  0.6500000E+04  0.7818608E-02  0.7223770E-01
         52   -1    0    0    0    0  0.00000000000E+00  0.00000000000E+00  0.64930732323E+04  0.65000000000E+04  0.30000000000E+03 0. -1.
        -52   -1    0    0    0    0 -0.00000000000E+00 -0.00000000000E+00 -0.64930732323E+04  0.65000000000E+04  0.30000000000E+03 0.  1.
     100001    1    1    2    0    0 -0.15501663430E+04  0.23938208193E+04 -0.58390029923E+04  0.65000000000E+04  0.15050000000E+03 0.  1.
     100001    1    1    2    0    0  0.15501663430E+04 -0.23938208193E+04  0.58390029923E+04  0.65000000000E+04  0.15050000000E+03 0. -1.
</event>
<event>
 4    1  0.5640637E-004  0.6500000E+04  0.7818608E-02  0.7223770E-01
         52   -1    0    0    0    0  0.00000000000E+00  0.00000000000E+00  0.64930732323E+04  0.65000000000E+04  0.30000000000E+03 0.  1.
        -52   -1    0    0    0    0 -0.00000000000E+00 -0.00000000000E+00 -0.64930732323E+04  0.65000000000E+04  0.30000000000E+03 0. -1.
     100001    1    1    2    0    0 -0.15496409045E+04  0.62992409954E+04  0.38147830773E+03  0.65000000000E+04  0.15050000000E+03 0. -1.
     100001    1    1    2    0    0  0.15496409045E+04 -0.62992409954E+04 -0.38147830773E+03  0.65000000000E+04  0.15050000000E+03 0.  1.
</event>
<event>
 4    1  0.5640637E-004  0.6500000E+04  0.7818608E-02  0.7223770E-01
         52   -1    0    0    0    0  0.00000000000E+00  0.00000000000E+00  0.64930732323E+04  0.65000000000E+04  0.30000000000E+03 0. -1.
        -52   -1    0    0    0    0 -0.00000000000E+00 -0.00000000000E+00 -0.64930732323E+04  0.65000000000E+04  0.30000000000E+03 0.  1.
     100001    1    1    2    0    0  0.11703380722E+04 -0.23221677348E+04  0.59552662038E+04  0.65000000000E+04  0.15050000000E+03 0. -1.
     100001    1    1    2    0    0 -0.11703380722E+04  0.23221677348E+04 -0.59552662038E+04  0.65000000000E+04  0.15050000000E+03 0.  1.
</event>
<event>
 4    1  0.5640637E-004  0.6500000E+04  0.7818608E-02  0.7223770E-01
         52   -1    0    0    0    0  0.00000000000E+00  0.00000000000E+00  0.64930732323E+04  0.65000000000E+04  0.30000000000E+03 0. -1.
        -52   -1    0    0    0    0 -0.00000000000E+00 -0.00000000000E+00 -0.64930732323E+04  0.65000000000E+04  0.30000000000E+03 0.  1.
     100001    1    1    2    0    0  0.23411121866E+04  0.43319862534E+02 -0.60617379413E+04  0.65000000000E+04  0.15050000000E+03 0.  1.
     100001    1    1    2    0    0 -0.23411121866E+04 -0.43319862534E+02  0.60617379413E+04  0.65000000000E+04  0.15050000000E+03 0. -1.
</event>
<event>
 4    1  0.5640637E-004  0.6500000E+04  0.7818608E-02  0.7223770E-01
         52   -1    0    0    0    0  0.00000000000E+00  0.00000000000E+00  0.64930732323E+04  0.65000000000E+04  0.30000000000E+03 0. -1.
        -52   -1    0    0    0    0 -0.00000000000E+00 -0.00000000000E+00 -0.64930732323E+04  0.65000000000E+04  0.30000000000E+03 0.  1.
     100001    1    1    2    0    0 -0.61218407547E+03 -0.55229338349E+03 -0.64457390908E+04  0.65000000000E+04  0.15050000000E+03 0.  1.
     100001    1    1    2    0    0  0.61218407547E+03  0.55229338349E+03  0.64457390908E+04  0.65000000000E+04  0.15050000000E+03 0. -1.
</event>
<event>
 4    1  0.5640637E-004  0.6500000E+04  0.7818608E-02  0.7223770E-01
         52   -1    0    0    0    0  0.00000000000E+00  0.00000000000E+00  0.64930732323E+04  0.65000000000E+04  0.30000000000E+03 0. -1.
        -52   -1    0    0    0    0 -0.00000000000E+00 -0.00000000000E+00 -0.64930732323E+04  0.65000000000E+04  0.30000000000E+03 0.  1.
     100001    1    1    2    0    0  0.18495071056E+04 -0.27133270830E+04  0.56075421851E+04  0.65000000000E+04  0.15050000000E+03 0. -1.
     100001    1    1    2    0    0 -0.18495071056E+04  0.27133270830E+04 -0.56075421851E+04  0.65000000000E+04  0.15050000000E+03 0.  1.
</event>
<event>
 4    1  0.5640637E-004  0.6500000E+04  0.7818608E-02  0.7223770E-01
         52   -1    0    0    0    0  0.00000000000E+00  0.00000000000E+00  0.64930732323E+04  0.65000000000E+04  0.30000000000E+03 0.  1.
        -52   -1    0    0    0    0 -0.00000000000E+00 -0.00000000000E+00 -0.64930732323E+04  0.65000000000E+04  0.30000000000E+03 0. -1.
     100001    1    1    2    0    0  0.17512393694E+04 -0.10583452906E+04 -0.61676912753E+04  0.65000000000E+04  0.15050000000E+03 0. -1.
     100001    1    1    2    0    0 -0.17512393694E+04  0.10583452906E+04  0.61676912753E+04  0.65000000000E+04  0.15050000000E+03 0.  1.
</event>
<event>
 4    1  0.5640637E-004  0.6500000E+04  0.7818608E-02  0.7223770E-01
         52   -1    0    0    0    0  0.00000000000E+00  0.00000000000E+00  0.64930732323E+04  0.65000000000E+04  0.30000000000E+03 0.  1.
        -52   -1    0    0    0    0 -0.00000000000E+00 -0.00000000000E+00 -0.64930732323E+04  0.65000000000E+04  0.30000000000E+03 0.  1.
     100001    1    1    2    0    0  0.73755467286E+02  0.11681287530E+04  0.63919781834E+04  0.65000000000E+04  0.15050000000E+03 0.  1.
     100001    1    1    2    0    0 -0.73755467286E+02 -0.11681287530E+04 -0.63919781834E+04  0.65000000000E+04  0.15050000000E+03 0.  1.
</event>
<event>
 4    1  0.5640637E-004  0.6500000E+04  0.7818608E-02  0.7223770E-01
         52   -1    0    0    0    0  0.00000000000E+00  0.00000000000E+00  0.64930732323E+04  0.65000000000E+04  0.30000000000E+03 0.  1.
        -52   -1    0    0    0    0 -0.00000000000E+00 -0.00000000000E+00 -0.64930732323E+04  0.65000000000E+04  0.30000000000E+03 0. -1.
     100001    1    1    2    0    0 -0.76592746991E+03 -0.39686627686E+03  0.64407454552E+04  0.65000000000E+04  0.15050000000E+03 0.  1.
     100001    1    1    2    0    0  0.76592746991E+03  0.39686627686E+03 -0.64407454552E+04  0.65000000000E+04  0.15050000000E+03 0. -1.
</event>
<event>
 4    1  0.5640637E-004  0.6500000E+04  0.7818608E-02  0.7223770E-01
         52   -1    0    0    0    0  0.00000000000E+00  0.00000000000E+00  0.64930732323E+04  0.65000000000E+04  0.30000000000E+03 0.  1.
        -52   -1    0    0    0    0 -0.00000000000E+00 -0.00000000000E+00 -0.64930732323E+04  0.65000000000E+04  0.30000000000E+03 0. -1.
     100001    1    1    2    0    0  0.73709728881E+03 -0.56714063500E+03 -0.64313597969E+04  0.65000000000E+04  0.15050000000E+03 0. -1.
     100001    1    1    2    0    0 -0.73709728881E+03  0.56714063500E+03  0.64313597969E+04  0.65000000000E+04  0.15050000000E+03 0.  1.
</event>
<event>
 4    1  0.5640637E-004  0.6500000E+04  0.7818608E-02  0.7223770E-01
         52   -1    0    0    0    0  0.00000000000E+00  0.00000000000E+00  0.64930732323E+04  0.65000000000E+04  0.30000000000E+03 0.  1.
        -52   -1    0    0    0    0 -0.00000000000E+00 -0.00000000000E+00 -0.64930732323E+04  0.65000000000E+04  0.30000000000E+03 0. -1.
     100001    1    1    2    0    0  0.61677130348E+03 -0.27504665091E+04 -0.58550727486E+04  0.65000000000E+04  0.15050000000E+03 0. -1.
     100001    1    1    2    0    0 -0.61677130348E+03  0.27504665091E+04  0.58550727486E+04  0.65000000000E+04  0.15050000000E+03 0.  1.
</event>
<event>
 4    1  0.6391435E-004  0.6500000E+04  0.7818608E-02  0.7223770E-01
         52   -1    0    0    0    0  0.00000000000E+00  0.00000000000E+00  0.64930732323E+04  0.65000000000E+04  0.30000000000E+03 0. -1.
        -52   -1    0    0    0    0 -0.00000000000E+00 -0.00000000000E+00 -0.64930732323E+04  0.65000000000E+04  0.30000000000E+03 0. -1.
     100001    1    1    2    0    0 -0.12743035958E+03 -0.75006777121E+02 -0.64965748850E+04  0.65000000000E+04  0.15050000000E+03 0. -1.
     100001    1    1    2    0    0  0.12743035958E+03  0.75006777121E+02  0.64965748850E+04  0.65000000000E+04  0.15050000000E+03 0. -1.
</event>
<event>
 4    1  0.5640637E-004  0.6500000E+04  0.7818608E-02  0.7223770E-01
         52   -1    0    0    0    0  0.00000000000E+00  0.00000000000E+00  0.64930732323E+04  0.65000000000E+04  0.30000000000E+03 0. -1.
        -52   -1    0    0    0    0 -0.00000000000E+00 -0.00000000000E+00 -0.64930732323E+04  0.65000000000E+04  0.30000000000E+03 0.  1.
     100001    1    1    2    0    0 -0.13006700748E+04 -0.42273680886E+04 -0.47607736924E+04  0.65000000000E+04  0.15050000000E+03 0.  1.
     100001    1    1    2    0    0  0.13006700748E+04  0.42273680886E+04  0.47607736924E+04  0.65000000000E+04  0.15050000000E+03 0. -1.
</event>
<event>
 4    1  0.5640637E-004  0.6500000E+04  0.7818608E-02  0.7223770E-01
         52   -1    0    0    0    0  0.00000000000E+00  0.00000000000E+00  0.64930732323E+04  0.65000000000E+04  0.30000000000E+03 0. -1.
        -52   -1    0    0    0    0 -0.00000000000E+00 -0.00000000000E+00 -0.64930732323E+04  0.65000000000E+04  0.30000000000E+03 0.  1.
     100001    1    1    2    0    0  0.52394481001E+04  0.37093497747E+04 -0.10080960296E+04  0.65000000000E+04  0.15050000000E+03 0.  1.
     100001    1    1    2    0    0 -0.52394481001E+04 -0.37093497747E+04  0.10080960296E+04  0.65000000000E+04  0.15050000000E+03 0. -1.
</event>
<event>
 4    1  0.5640637E-004  0.6500000E+04  0.7818608E-02  0.7223770E-01
         52   -1    0    0    0    0  0.00000000000E+00  0.00000000000E+00  0.64930732323E+04  0.65000000000E+04  0.30000000000E+03 0. -1.
        -52   -1    0    0    0    0 -0.00000000000E+00 -0.00000000000E+00 -0.64930732323E+04  0.65000000000E+04  0.30000000000E+03 0.  1.
     100001    1    1    2    0    0  0.19413876050E+04  0.28753137133E+04  0.54946278279E+04  0.65000000000E+04  0.15050000000E+03 0. -1.
     100001    1    1    2    0    0 -0.19413876050E+04 -0.28753137133E+04 -0.54946278279E+04  0.65000000000E+04  0.15050000000E+03 0.  1.
</event>
<event>
 4    1  0.5640637E-004  0.6500000E+04  0.7818608E-02  0.7223770E-01
         52   -1    0    0    0    0  0.00000000000E+00  0.00000000000E+00  0.64930732323E+04  0.65000000000E+04  0.30000000000E+03 0.  1.
        -52   -1    0    0    0    0 -0.00000000000E+00 -0.00000000000E+00 -0.64930732323E+04  0.65000000000E+04  0.30000000000E+03 0. -1.
     100001    1    1    2    0    0  0.33263698819E+03 -0.62866499935E+03 -0.64592168800E+04  0.65000000000E+04  0.15050000000E+03 0. -1.
     100001    1    1    2    0    0 -0.33263698819E+03  0.62866499935E+03  0.64592168800E+04  0.65000000000E+04  0.15050000000E+03 0.  1.
</event>
<event>
 4    1  0.5640637E-004  0.6500000E+04  0.7818608E-02  0.7223770E-01
         52   -1    0    0    0    0  0.00000000000E+00  0.00000000000E+00  0.64930732323E+04  0.65000000000E+04  0.30000000000E+03 0. -1.
        -52   -1    0    0    0    0 -0.00000000000E+00 -0.00000000000E+00 -0.64930732323E+04  0.65000000000E+04  0.30000000000E+03 0.  1.
     100001    1    1    2    0    0 -0.71739631892E+03  0.41491757057E+03 -0.64451947745E+04  0.65000000000E+04  0.15050000000E+03 0.  1.
     100001    1    1    2    0    0  0.71739631892E+03 -0.41491757057E+03  0.64451947745E+04  0.65000000000E+04  0.15050000000E+03 0. -1.
</event>
<event>
 4    1  0.5640637E-004  0.6500000E+04  0.7818608E-02  0.7223770E-01
         52   -1    0    0    0    0  0.00000000000E+00  0.00000000000E+00  0.64930732323E+04  0.65000000000E+04  0.30000000000E+03 0. -1.
        -52   -1    0    0    0    0 -0.00000000000E+00 -0.00000000000E+00 -0.64930732323E+04  0.65000000000E+04  0.30000000000E+03 0. -1.
     100001    1    1    2    0    0  0.41114805238E+03 -0.12372317818E+03 -0.64840573412E+04  0.65000000000E+04  0.15050000000E+03 0. -1.
     100001    1    1    2    0    0 -0.41114805238E+03  0.12372317818E+03  0.64840573412E+04  0.65000000000E+04  0.15050000000E+03 0. -1.
</event>
<event>
 4    1  0.5640637E-004  0.6500000E+04  0.7818608E-02  0.7223770E-01
         52   -1    0    0    0    0  0.00000000000E+00  0.00000000000E+00  0.64930732323E+04  0.65000000000E+04  0.30000000000E+03 0.  1.
        -52   -1    0    0    0    0 -0.00000000000E+00 -0.00000000000E+00 -0.64930732323E+04  0.65000000000E+04  0.30000000000E+03 0. -1.
     100001    1    1    2    0    0  0.49072071976E+04  0.22036704044E+04  0.36456143540E+04  0.65000000000E+04  0.15050000000E+03 0.  1.
     100001    1    1    2    0    0 -0.49072071976E+04 -0.22036704044E+04 -0.36456143540E+04  0.65000000000E+04  0.15050000000E+03 0. -1.
</event>
<event>
 4    1  0.5640637E-004  0.6500000E+04  0.7818608E-02  0.7223770E-01
         52   -1    0    0    0    0  0.00000000000E+00  0.00000000000E+00  0.64930732323E+04  0.65000000000E+04  0.30000000000E+03 0. -1.
        -52   -1    0    0    0    0 -0.00000000000E+00 -0.00000000000E+00 -0.64930732323E+04  0.65000000000E+04  0.30000000000E+03 0.  1.
     100001    1    1    2    0    0 -0.61264944093E+03  0.68673432359E+02 -0.64689484750E+04  0.65000000000E+04  0.15050000000E+03 0.  1.
     100001    1    1    2    0    0  0.61264944093E+03 -0.68673432359E+02  0.64689484750E+04  0.65000000000E+04  0.15050000000E+03 0. -1.
</event>
<event>
 4    1  0.5640637E-004  0.6500000E+04  0.7818608E-02  0.7223770E-01
         52   -1    0    0    0    0  0.00000000000E+00  0.00000000000E+00  0.64930732323E+04  0.65000000000E+04  0.30000000000E+03 0. -1.
        -52   -1    0    0    0    0 -0.00000000000E+00 -0.00000000000E+00 -0.64930732323E+04  0.65000000000E+04  0.30000000000E+03 0.  1.
     100001    1    1    2    0    0  0.28176767737E+04  0.57191845478E+04  0.12565729016E+04  0.65000000000E+04  0.15050000000E+03 0. -1.
     100001    1    1    2    0    0 -0.28176767737E+04 -0.57191845478E+04 -0.12565729016E+04  0.65000000000E+04  0.15050000000E+03 0.  1.
</event>
<event>
 4    1  0.5640637E-004  0.6500000E+04  0.7818608E-02  0.7223770E-01
         52   -1    0    0    0    0  0.00000000000E+00  0.00000000000E+00  0.64930732323E+04  0.65000000000E+04  0.30000000000E+03 0.  1.
        -52   -1    0    0    0    0 -0.00000000000E+00 -0.00000000000E+00 -0.64930732323E+04  0.65000000000E+04  0.30000000000E+03 0. -1.
     100001    1    1    2    0    0 -0.52467428803E+04  0.38330114458E+04 -0.84036623670E+02  0.65000000000E+04  0.15050000000E+03 0. -1.
     100001    1    1    2    0    0  0.52467428803E+04 -0.38330114458E+04  0.84036623670E+02  0.65000000000E+04  0.15050000000E+03 0.  1.
</event>
<event>
 4    1  0.5640637E-004  0.6500000E+04  0.7818608E-02  0.7223770E-01
         52   -1    0    0    0    0  0.00000000000E+00  0.00000000000E+00  0.64930732323E+04  0.65000000000E+04  0.30000000000E+03 0. -1.
        -52   -1    0    0    0    0 -0.00000000000E+00 -0.00000000000E+00 -0.64930732323E+04  0.65000000000E+04  0.30000000000E+03 0. -1.
     100001    1    1    2    0    0  0.17924265776E+03 -0.21678840797E+03 -0.64921664031E+04  0.65000000000E+04  0.15050000000E+03 0. -1.
     100001    1    1    2    0    0 -0.17924265776E+03  0.21678840797E+03  0.64921664031E+04  0.65000000000E+04  0.15050000000E+03 0. -1.
</event>
<event>
 4    1  0.5640637E-004  0.6500000E+04  0.7818608E-02  0.7223770E-01
         52   -1    0    0    0    0  0.00000000000E+00  0.00000000000E+00  0.64930732323E+04  0.65000000000E+04  0.30000000000E+03 0. -1.
        -52   -1    0    0    0    0 -0.00000000000E+00 -0.00000000000E+00 -0.64930732323E+04  0.65000000000E+04  0.30000000000E+03 0.  1.
     100001    1    1    2    0    0 -0.14954857916E+03 -0.51015611257E+03  0.64764747906E+04  0.65000000000E+04  0.15050000000E+03 0. -1.
     100001    1    1    2    0    0  0.14954857916E+03  0.51015611257E+03 -0.64764747906E+04  0.65000000000E+04  0.15050000000E+03 0.  1.
</event>
<event>
 4    1  0.5640637E-004  0.6500000E+04  0.7818608E-02  0.7223770E-01
         52   -1    0    0    0    0  0.00000000000E+00  0.00000000000E+00  0.64930732323E+04  0.65000000000E+04  0.30000000000E+03 0. -1.
        -52   -1    0    0    0    0 -0.00000000000E+00 -0.00000000000E+00 -0.64930732323E+04  0.65000000000E+04  0.30000000000E+03 0.  1.
     100001    1    1    2    0    0  0.20938278902E+03 -0.27907801959E+04 -0.58647297036E+04  0.65000000000E+04  0.15050000000E+03 0.  1.
     100001    1    1    2    0    0 -0.20938278902E+03  0.27907801959E+04  0.58647297036E+04  0.65000000000E+04  0.15050000000E+03 0. -1.
</event>
<event>
 4    1  0.5640637E-004  0.6500000E+04  0.7818608E-02  0.7223770E-01
         52   -1    0    0    0    0  0.00000000000E+00  0.00000000000E+00  0.64930732323E+04  0.65000000000E+04  0.30000000000E+03 0. -1.
        -52   -1    0    0    0    0 -0.00000000000E+00 -0.00000000000E+00 -0.64930732323E+04  0.65000000000E+04  0.30000000000E+03 0.  1.
     100001    1    1    2    0    0 -0.73310009824E+02 -0.21370517449E+03 -0.64943287175E+04  0.65000000000E+04  0.15050000000E+03 0.  1.
     100001    1    1    2    0    0  0.73310009824E+02  0.21370517449E+03  0.64943287175E+04  0.65000000000E+04  0.15050000000E+03 0. -1.
</event>
<event>
 4    1  0.5640637E-004  0.6500000E+04  0.7818608E-02  0.7223770E-01
         52   -1    0    0    0    0  0.00000000000E+00  0.00000000000E+00  0.64930732323E+04  0.65000000000E+04  0.30000000000E+03 0. -1.
        -52   -1    0    0    0    0 -0.00000000000E+00 -0.00000000000E+00 -0.64930732323E+04  0.65000000000E+04  0.30000000000E+03 0.  1.
     100001    1    1    2    0    0  0.77441379912E+03 -0.16891492873E+04  0.62269099643E+04  0.65000000000E+04  0.15050000000E+03 0. -1.
     100001    1    1    2    0    0 -0.77441379912E+03  0.16891492873E+04 -0.62269099643E+04  0.65000000000E+04  0.15050000000E+03 0.  1.
</event>
<event>
 4    1  0.5640637E-004  0.6500000E+04  0.7818608E-02  0.7223770E-01
         52   -1    0    0    0    0  0.00000000000E+00  0.00000000000E+00  0.64930732323E+04  0.65000000000E+04  0.30000000000E+03 0. -1.
        -52   -1    0    0    0    0 -0.00000000000E+00 -0.00000000000E+00 -0.64930732323E+04  0.65000000000E+04  0.30000000000E+03 0.  1.
     100001    1    1    2    0    0 -0.79234197437E+03 -0.11370601306E+03  0.64487684784E+04  0.65000000000E+04  0.15050000000E+03 0. -1.
     100001    1    1    2    0    0  0.79234197437E+03  0.11370601306E+03 -0.64487684784E+04  0.65000000000E+04  0.15050000000E+03 0.  1.
</event>
<event>
 4    1  0.5640637E-004  0.6500000E+04  0.7818608E-02  0.7223770E-01
         52   -1    0    0    0    0  0.00000000000E+00  0.00000000000E+00  0.64930732323E+04  0.65000000000E+04  0.30000000000E+03 0.  1.
        -52   -1    0    0    0    0 -0.00000000000E+00 -0.00000000000E+00 -0.64930732323E+04  0.65000000000E+04  0.30000000000E+03 0. -1.
     100001    1    1    2    0    0  0.70021101879E+03  0.89419323319E+03 -0.63982398158E+04  0.65000000000E+04  0.15050000000E+03 0. -1.
     100001    1    1    2    0    0 -0.70021101879E+03 -0.89419323319E+03  0.63982398158E+04  0.65000000000E+04  0.15050000000E+03 0.  1.
</event>
<event>
 4    1  0.5640637E-004  0.6500000E+04  0.7818608E-02  0.7223770E-01
         52   -1    0    0    0    0  0.00000000000E+00  0.00000000000E+00  0.64930732323E+04  0.65000000000E+04  0.30000000000E+03 0.  1.
        -52   -1    0    0    0    0 -0.00000000000E+00 -0.00000000000E+00 -0.64930732323E+04  0.65000000000E+04  0.30000000000E+03 0. -1.
     100001    1    1    2    0    0  0.36977047204E+04  0.34230468444E+04 -0.41033010921E+04  0.65000000000E+04  0.15050000000E+03 0. -1.
     100001    1    1    2    0    0 -0.36977047204E+04 -0.34230468444E+04  0.41033010921E+04  0.65000000000E+04  0.15050000000E+03 0.  1.
</event>
<event>
 4    1  0.5640637E-004  0.6500000E+04  0.7818608E-02  0.7223770E-01
         52   -1    0    0    0    0  0.00000000000E+00  0.00000000000E+00  0.64930732323E+04  0.65000000000E+04  0.30000000000E+03 0. -1.
        -52   -1    0    0    0    0 -0.00000000000E+00 -0.00000000000E+00 -0.64930732323E+04  0.65000000000E+04  0.30000000000E+03 0. -1.
     100001    1    1    2    0    0  0.17265923799E+03 -0.24131294282E+03  0.64914795387E+04  0.65000000000E+04  0.15050000000E+03 0. -1.
     100001    1    1    2    0    0 -0.17265923799E+03  0.24131294282E+03 -0.64914795387E+04  0.65000000000E+04  0.15050000000E+03 0. -1.
</event>
<event>
 4    1  0.5640637E-004  0.6500000E+04  0.7818608E-02  0.7223770E-01
         52   -1    0    0    0    0  0.00000000000E+00  0.00000000000E+00  0.64930732323E+04  0.65000000000E+04  0.30000000000E+03 0.  1.
        -52   -1    0    0    0    0 -0.00000000000E+00 -0.00000000000E+00 -0.64930732323E+04  0.65000000000E+04  0.30000000000E+03 0. -1.
     100001    1    1    2    0    0 -0.68917684380E+03 -0.50762610731E+04 -0.39979943153E+04  0.65000000000E+04  0.15050000000E+03 0. -1.
     100001    1    1    2    0    0  0.68917684380E+03  0.50762610731E+04  0.39979943153E+04  0.65000000000E+04  0.15050000000E+03 0.  1.
</event>
<event>
 4    1  0.5640637E-004  0.6500000E+04  0.7818608E-02  0.7223770E-01
         52   -1    0    0    0    0  0.00000000000E+00  0.00000000000E+00  0.64930732323E+04  0.65000000000E+04  0.30000000000E+03 0.  1.
        -52   -1    0    0    0    0 -0.00000000000E+00 -0.00000000000E+00 -0.64930732323E+04  0.65000000000E+04  0.30000000000E+03 0. -1.
     100001    1    1    2    0    0  0.12272245735E+04  0.11550605946E+01 -0.63813218272E+04  0.65000000000E+04  0.15050000000E+03 0. -1.
     100001    1    1    2    0    0 -0.12272245735E+04 -0.11550605946E+01  0.63813218272E+04  0.65000000000E+04  0.15050000000E+03 0.  1.
</event>
<event>
 4    1  0.5640637E-004  0.6500000E+04  0.7818608E-02  0.7223770E-01
         52   -1    0    0    0    0  0.00000000000E+00  0.00000000000E+00  0.64930732323E+04  0.65000000000E+04  0.30000000000E+03 0. -1.
        -52   -1    0    0    0    0 -0.00000000000E+00 -0.00000000000E+00 -0.64930732323E+04  0.65000000000E+04  0.30000000000E+03 0.  1.
     100001    1    1    2    0    0 -0.15072623092E+03 -0.54206900512E+03 -0.64738545355E+04  0.65000000000E+04  0.15050000000E+03 0.  1.
     100001    1    1    2    0    0  0.15072623092E+03  0.54206900512E+03  0.64738545355E+04  0.65000000000E+04  0.15050000000E+03 0. -1.
</event>
<event>
 4    1  0.5640637E-004  0.6500000E+04  0.7818608E-02  0.7223770E-01
         52   -1    0    0    0    0  0.00000000000E+00  0.00000000000E+00  0.64930732323E+04  0.65000000000E+04  0.30000000000E+03 0.  1.
        -52   -1    0    0    0    0 -0.00000000000E+00 -0.00000000000E+00 -0.64930732323E+04  0.65000000000E+04  0.30000000000E+03 0. -1.
     100001    1    1    2    0    0  0.60639762384E+03  0.17374379017E+04 -0.62322500920E+04  0.65000000000E+04  0.15050000000E+03 0. -1.
     100001    1    1    2    0    0 -0.60639762384E+03 -0.17374379017E+04  0.62322500920E+04  0.65000000000E+04  0.15050000000E+03 0.  1.
</event>
<event>
 4    1  0.5640637E-004  0.6500000E+04  0.7818608E-02  0.7223770E-01
         52   -1    0    0    0    0  0.00000000000E+00  0.00000000000E+00  0.64930732323E+04  0.65000000000E+04  0.30000000000E+03 0.  1.
        -52   -1    0    0    0    0 -0.00000000000E+00 -0.00000000000E+00 -0.64930732323E+04  0.65000000000E+04  0.30000000000E+03 0. -1.
     100001    1    1    2    0    0 -0.25650902897E+04  0.56169588707E+04 -0.20242120937E+04  0.65000000000E+04  0.15050000000E+03 0. -1.
     100001    1    1    2    0    0  0.25650902897E+04 -0.56169588707E+04  0.20242120937E+04  0.65000000000E+04  0.15050000000E+03 0.  1.
</event>
<event>
 4    1  0.5640637E-004  0.6500000E+04  0.7818608E-02  0.7223770E-01
         52   -1    0    0    0    0  0.00000000000E+00  0.00000000000E+00  0.64930732323E+04  0.65000000000E+04  0.30000000000E+03 0.  1.
        -52   -1    0    0    0    0 -0.00000000000E+00 -0.00000000000E+00 -0.64930732323E+04  0.65000000000E+04  0.30000000000E+03 0.  1.
     100001    1    1    2    0    0  0.58302836066E+02  0.40029737343E+03 -0.64856543650E+04  0.65000000000E+04  0.15050000000E+03 0.  1.
     100001    1    1    2    0    0 -0.58302836066E+02 -0.40029737343E+03  0.64856543650E+04  0.65000000000E+04  0.15050000000E+03 0.  1.
</event>
<event>
 4    1  0.5640637E-004  0.6500000E+04  0.7818608E-02  0.7223770E-01
         52   -1    0    0    0    0  0.00000000000E+00  0.00000000000E+00  0.64930732323E+04  0.65000000000E+04  0.30000000000E+03 0. -1.
        -52   -1    0    0    0    0 -0.00000000000E+00 -0.00000000000E+00 -0.64930732323E+04  0.65000000000E+04  0.30000000000E+03 0.  1.
     100001    1    1    2    0    0 -0.63527391060E+04 -0.13152722514E+04 -0.37431872145E+03  0.65000000000E+04  0.15050000000E+03 0. -1.
     100001    1    1    2    0    0  0.63527391060E+04  0.13152722514E+04  0.37431872145E+03  0.65000000000E+04  0.15050000000E+03 0.  1.
</event>
<event>
 4    1  0.5640637E-004  0.6500000E+04  0.7818608E-02  0.7223770E-01
         52   -1    0    0    0    0  0.00000000000E+00  0.00000000000E+00  0.64930732323E+04  0.65000000000E+04  0.30000000000E+03 0.  1.
        -52   -1    0    0    0    0 -0.00000000000E+00 -0.00000000000E+00 -0.64930732323E+04  0.65000000000E+04  0.30000000000E+03 0. -1.
     100001    1    1    2    0    0 -0.25104958677E+03 -0.62243405738E+02 -0.64931078548E+04  0.65000000000E+04  0.15050000000E+03 0. -1.
     100001    1    1    2    0    0  0.25104958677E+03  0.62243405738E+02  0.64931078548E+04  0.65000000000E+04  0.15050000000E+03 0.  1.
</event>
<event>
 4    1  0.5640637E-004  0.6500000E+04  0.7818608E-02  0.7223770E-01
         52   -1    0    0    0    0  0.00000000000E+00  0.00000000000E+00  0.64930732323E+04  0.65000000000E+04  0.30000000000E+03 0. -1.
        -52   -1    0    0    0    0 -0.00000000000E+00 -0.00000000000E+00 -0.64930732323E+04  0.65000000000E+04  0.30000000000E+03 0.  1.
     100001    1    1    2    0    0 -0.37950305816E+04 -0.14775692870E+04 -0.50637813575E+04  0.65000000000E+04  0.15050000000E+03 0.  1.
     100001    1    1    2    0    0  0.37950305816E+04  0.14775692870E+04  0.50637813575E+04  0.65000000000E+04  0.15050000000E+03 0. -1.
</event>
<event>
 4    1  0.5640637E-004  0.6500000E+04  0.7818608E-02  0.7223770E-01
         52   -1    0    0    0    0  0.00000000000E+00  0.00000000000E+00  0.64930732323E+04  0.65000000000E+04  0.30000000000E+03 0.  1.
        -52   -1    0    0    0    0 -0.00000000000E+00 -0.00000000000E+00 -0.64930732323E+04  0.65000000000E+04  0.30000000000E+03 0. -1.
     100001    1    1    2    0    0  0.13452418468E+04 -0.83071672177E+03  0.63029821396E+04  0.65000000000E+04  0.15050000000E+03 0.  1.
     100001    1    1    2    0    0 -0.13452418468E+04  0.83071672177E+03 -0.63029821396E+04  0.65000000000E+04  0.15050000000E+03 0. -1.
</event>
<event>
 4    1  0.5640637E-004  0.6500000E+04  0.7818608E-02  0.7223770E-01
         52   -1    0    0    0    0  0.00000000000E+00  0.00000000000E+00  0.64930732323E+04  0.65000000000E+04  0.30000000000E+03 0.  1.
        -52   -1    0    0    0    0 -0.00000000000E+00 -0.00000000000E+00 -0.64930732323E+04  0.65000000000E+04  0.30000000000E+03 0. -1.
     100001    1    1    2    0    0  0.27362525112E+04  0.10359499471E+04 -0.58023339832E+04  0.65000000000E+04  0.15050000000E+03 0. -1.
     100001    1    1    2    0    0 -0.27362525112E+04 -0.10359499471E+04  0.58023339832E+04  0.65000000000E+04  0.15050000000E+03 0.  1.
</event>
<event>
 4    1  0.5640637E-004  0.6500000E+04  0.7818608E-02  0.7223770E-01
         52   -1    0    0    0    0  0.00000000000E+00  0.00000000000E+00  0.64930732323E+04  0.65000000000E+04  0.30000000000E+03 0.  1.
        -52   -1    0    0    0    0 -0.00000000000E+00 -0.00000000000E+00 -0.64930732323E+04  0.65000000000E+04  0.30000000000E+03 0. -1.
     100001    1    1    2    0    0  0.92674821278E+03 -0.43937430615E+03 -0.64168089982E+04  0.65000000000E+04  0.15050000000E+03 0. -1.
     100001    1    1    2    0    0 -0.92674821278E+03  0.43937430615E+03  0.64168089982E+04  0.65000000000E+04  0.15050000000E+03 0.  1.
</event>
<event>
 4    1  0.5640637E-004  0.6500000E+04  0.7818608E-02  0.7223770E-01
         52   -1    0    0    0    0  0.00000000000E+00  0.00000000000E+00  0.64930732323E+04  0.65000000000E+04  0.30000000000E+03 0. -1.
        -52   -1    0    0    0    0 -0.00000000000E+00 -0.00000000000E+00 -0.64930732323E+04  0.65000000000E+04  0.30000000000E+03 0.  1.
     100001    1    1    2    0    0 -0.57675417734E+03 -0.50075307802E+03 -0.64532124344E+04  0.65000000000E+04  0.15050000000E+03 0.  1.
     100001    1    1    2    0    0  0.57675417734E+03  0.50075307802E+03  0.64532124344E+04  0.65000000000E+04  0.15050000000E+03 0. -1.
</event>
<event>
 4    1  0.5640637E-004  0.6500000E+04  0.7818608E-02  0.7223770E-01
         52   -1    0    0    0    0  0.00000000000E+00  0.00000000000E+00  0.64930732323E+04  0.65000000000E+04  0.30000000000E+03 0. -1.
        -52   -1    0    0    0    0 -0.00000000000E+00 -0.00000000000E+00 -0.64930732323E+04  0.65000000000E+04  0.30000000000E+03 0.  1.
     100001    1    1    2    0    0  0.38554137730E+03  0.75079229769E+02  0.64863757759E+04  0.65000000000E+04  0.15050000000E+03 0. -1.
     100001    1    1    2    0    0 -0.38554137730E+03 -0.75079229769E+02 -0.64863757759E+04  0.65000000000E+04  0.15050000000E+03 0.  1.
</event>
<event>
 4    1  0.5640637E-004  0.6500000E+04  0.7818608E-02  0.7223770E-01
         52   -1    0    0    0    0  0.00000000000E+00  0.00000000000E+00  0.64930732323E+04  0.65000000000E+04  0.30000000000E+03 0. -1.
        -52   -1    0    0    0    0 -0.00000000000E+00 -0.00000000000E+00 -0.64930732323E+04  0.65000000000E+04  0.30000000000E+03 0.  1.
     100001    1    1    2    0    0  0.11710289735E+03  0.25438460126E+03  0.64922203549E+04  0.65000000000E+04  0.15050000000E+03 0. -1.
     100001    1    1    2    0    0 -0.11710289735E+03 -0.25438460126E+03 -0.64922203549E+04  0.65000000000E+04  0.15050000000E+03 0.  1.
</event>
<event>
 4    1  0.5640637E-004  0.6500000E+04  0.7818608E-02  0.7223770E-01
         52   -1    0    0    0    0  0.00000000000E+00  0.00000000000E+00  0.64930732323E+04  0.65000000000E+04  0.30000000000E+03 0.  1.
        -52   -1    0    0    0    0 -0.00000000000E+00 -0.00000000000E+00 -0.64930732323E+04  0.65000000000E+04  0.30000000000E+03 0. -1.
     100001    1    1    2    0    0  0.19681952251E+04 -0.17527042359E+04 -0.59398303989E+04  0.65000000000E+04  0.15050000000E+03 0. -1.
     100001    1    1    2    0    0 -0.19681952251E+04  0.17527042359E+04  0.59398303989E+04  0.65000000000E+04  0.15050000000E+03 0.  1.
</event>
<event>
 4    1  0.5640637E-004  0.6500000E+04  0.7818608E-02  0.7223770E-01
         52   -1    0    0    0    0  0.00000000000E+00  0.00000000000E+00  0.64930732323E+04  0.65000000000E+04  0.30000000000E+03 0.  1.
        -52   -1    0    0    0    0 -0.00000000000E+00 -0.00000000000E+00 -0.64930732323E+04  0.65000000000E+04  0.30000000000E+03 0. -1.
     100001    1    1    2    0    0  0.27707013390E+04  0.98510118580E+03 -0.57948373138E+04  0.65000000000E+04  0.15050000000E+03 0. -1.
     100001    1    1    2    0    0 -0.27707013390E+04 -0.98510118580E+03  0.57948373138E+04  0.65000000000E+04  0.15050000000E+03 0.  1.
</event>
<event>
 4    1  0.5640637E-004  0.6500000E+04  0.7818608E-02  0.7223770E-01
         52   -1    0    0    0    0  0.00000000000E+00  0.00000000000E+00  0.64930732323E+04  0.65000000000E+04  0.30000000000E+03 0.  1.
        -52   -1    0    0    0    0 -0.00000000000E+00 -0.00000000000E+00 -0.64930732323E+04  0.65000000000E+04  0.30000000000E+03 0. -1.
     100001    1    1    2    0    0 -0.19687900293E+04 -0.89348604831E+03 -0.61280419591E+04  0.65000000000E+04  0.15050000000E+03 0. -1.
     100001    1    1    2    0    0  0.19687900293E+04  0.89348604831E+03  0.61280419591E+04  0.65000000000E+04  0.15050000000E+03 0.  1.
</event>
<event>
 4    1  0.5640637E-004  0.6500000E+04  0.7818608E-02  0.7223770E-01
         52   -1    0    0    0    0  0.00000000000E+00  0.00000000000E+00  0.64930732323E+04  0.65000000000E+04  0.30000000000E+03 0.  1.
        -52   -1    0    0    0    0 -0.00000000000E+00 -0.00000000000E+00 -0.64930732323E+04  0.65000000000E+04  0.30000000000E+03 0. -1.
     100001    1    1    2    0    0 -0.45233486061E+03  0.63284693176E+03 -0.64515306467E+04  0.65000000000E+04  0.15050000000E+03 0. -1.
     100001    1    1    2    0    0  0.45233486061E+03 -0.63284693176E+03  0.64515306467E+04  0.65000000000E+04  0.15050000000E+03 0.  1.
</event>
<event>
 4    1  0.5640637E-004  0.6500000E+04  0.7818608E-02  0.7223770E-01
         52   -1    0    0    0    0  0.00000000000E+00  0.00000000000E+00  0.64930732323E+04  0.65000000000E+04  0.30000000000E+03 0.  1.
        -52   -1    0    0    0    0 -0.00000000000E+00 -0.00000000000E+00 -0.64930732323E+04  0.65000000000E+04  0.30000000000E+03 0. -1.
     100001    1    1    2    0    0  0.12488046620E+04  0.39945361926E+03 -0.63646110229E+04  0.65000000000E+04  0.15050000000E+03 0. -1.
     100001    1    1    2    0    0 -0.12488046620E+04 -0.39945361926E+03  0.63646110229E+04  0.65000000000E+04  0.15050000000E+03 0.  1.
</event>
<event>
 4    1  0.6506284E-004  0.6500000E+04  0.7818608E-02  0.7223770E-01
         52   -1    0    0    0    0  0.00000000000E+00  0.00000000000E+00  0.64930732323E+04  0.65000000000E+04  0.30000000000E+03 0.  1.
        -52   -1    0    0    0    0 -0.00000000000E+00 -0.00000000000E+00 -0.64930732323E+04  0.65000000000E+04  0.30000000000E+03 0. -1.
     100001    1    1    2    0    0  0.20095952915E+03 -0.12643280471E+03 -0.64939186755E+04  0.65000000000E+04  0.15050000000E+03 0. -1.
     100001    1    1    2    0    0 -0.20095952915E+03  0.12643280471E+03  0.64939186755E+04  0.65000000000E+04  0.15050000000E+03 0.  1.
</event>
<event>
 4    1  0.5640637E-004  0.6500000E+04  0.7818608E-02  0.7223770E-01
         52   -1    0    0    0    0  0.00000000000E+00  0.00000000000E+00  0.64930732323E+04  0.65000000000E+04  0.30000000000E+03 0. -1.
        -52   -1    0    0    0    0 -0.00000000000E+00 -0.00000000000E+00 -0.64930732323E+04  0.65000000000E+04  0.30000000000E+03 0.  1.
     100001    1    1    2    0    0 -0.31606505882E+03 -0.51751587950E+03  0.64699018496E+04  0.65000000000E+04  0.15050000000E+03 0. -1.
     100001    1    1    2    0    0  0.31606505882E+03  0.51751587950E+03 -0.64699018496E+04  0.65000000000E+04  0.15050000000E+03 0.  1.
</event>
<event>
 4    1  0.5640637E-004  0.6500000E+04  0.7818608E-02  0.7223770E-01
         52   -1    0    0    0    0  0.00000000000E+00  0.00000000000E+00  0.64930732323E+04  0.65000000000E+04  0.30000000000E+03 0. -1.
        -52   -1    0    0    0    0 -0.00000000000E+00 -0.00000000000E+00 -0.64930732323E+04  0.65000000000E+04  0.30000000000E+03 0.  1.
     100001    1    1    2    0    0  0.69242894120E+03  0.94915171799E+03  0.63911660069E+04  0.65000000000E+04  0.15050000000E+03 0. -1.
     100001    1    1    2    0    0 -0.69242894120E+03 -0.94915171799E+03 -0.63911660069E+04  0.65000000000E+04  0.15050000000E+03 0.  1.
</event>
<event>
 4    1  0.5640637E-004  0.6500000E+04  0.7818608E-02  0.7223770E-01
         52   -1    0    0    0    0  0.00000000000E+00  0.00000000000E+00  0.64930732323E+04  0.65000000000E+04  0.30000000000E+03 0.  1.
        -52   -1    0    0    0    0 -0.00000000000E+00 -0.00000000000E+00 -0.64930732323E+04  0.65000000000E+04  0.30000000000E+03 0. -1.
     100001    1    1    2    0    0 -0.92826717799E+03 -0.25114062620E+03  0.64267097478E+04  0.65000000000E+04  0.15050000000E+03 0.  1.
     100001    1    1    2    0    0  0.92826717799E+03  0.25114062620E+03 -0.64267097478E+04  0.65000000000E+04  0.15050000000E+03 0. -1.
</event>
<event>
 4    1  0.5640637E-004  0.6500000E+04  0.7818608E-02  0.7223770E-01
         52   -1    0    0    0    0  0.00000000000E+00  0.00000000000E+00  0.64930732323E+04  0.65000000000E+04  0.30000000000E+03 0.  1.
        -52   -1    0    0    0    0 -0.00000000000E+00 -0.00000000000E+00 -0.64930732323E+04  0.65000000000E+04  0.30000000000E+03 0. -1.
     100001    1    1    2    0    0 -0.36416933805E+04  0.53339185296E+04  0.71744838982E+03  0.65000000000E+04  0.15050000000E+03 0.  1.
     100001    1    1    2    0    0  0.36416933805E+04 -0.53339185296E+04 -0.71744838982E+03  0.65000000000E+04  0.15050000000E+03 0. -1.
</event>
<event>
 4    1  0.5640637E-004  0.6500000E+04  0.7818608E-02  0.7223770E-01
         52   -1    0    0    0    0  0.00000000000E+00  0.00000000000E+00  0.64930732323E+04  0.65000000000E+04  0.30000000000E+03 0. -1.
        -52   -1    0    0    0    0 -0.00000000000E+00 -0.00000000000E+00 -0.64930732323E+04  0.65000000000E+04  0.30000000000E+03 0.  1.
     100001    1    1    2    0    0 -0.28873790053E+04  0.89856801662E+03 -0.57517795289E+04  0.65000000000E+04  0.15050000000E+03 0.  1.
     100001    1    1    2    0    0  0.28873790053E+04 -0.89856801662E+03  0.57517795289E+04  0.65000000000E+04  0.15050000000E+03 0. -1.
</event>
<event>
 4    1  0.5640637E-004  0.6500000E+04  0.7818608E-02  0.7223770E-01
         52   -1    0    0    0    0  0.00000000000E+00  0.00000000000E+00  0.64930732323E+04  0.65000000000E+04  0.30000000000E+03 0.  1.
        -52   -1    0    0    0    0 -0.00000000000E+00 -0.00000000000E+00 -0.64930732323E+04  0.65000000000E+04  0.30000000000E+03 0.  1.
     100001    1    1    2    0    0 -0.16332965841E+03 -0.19400890806E+03 -0.64933068398E+04  0.65000000000E+04  0.15050000000E+03 0.  1.
     100001    1    1    2    0    0  0.16332965841E+03  0.19400890806E+03  0.64933068398E+04  0.65000000000E+04  0.15050000000E+03 0.  1.
</event>
<event>
 4    1  0.5640637E-004  0.6500000E+04  0.7818608E-02  0.7223770E-01
         52   -1    0    0    0    0  0.00000000000E+00  0.00000000000E+00  0.64930732323E+04  0.65000000000E+04  0.30000000000E+03 0. -1.
        -52   -1    0    0    0    0 -0.00000000000E+00 -0.00000000000E+00 -0.64930732323E+04  0.65000000000E+04  0.30000000000E+03 0.  1.
     100001    1    1    2    0    0  0.76121483574E+03  0.83363777360E+03  0.63994491784E+04  0.65000000000E+04  0.15050000000E+03 0. -1.
     100001    1    1    2    0    0 -0.76121483574E+03 -0.83363777360E+03 -0.63994491784E+04  0.65000000000E+04  0.15050000000E+03 0.  1.
</event>
<event>
 4    1  0.5640637E-004  0.6500000E+04  0.7818608E-02  0.7223770E-01
         52   -1    0    0    0    0  0.00000000000E+00  0.00000000000E+00  0.64930732323E+04  0.65000000000E+04  0.30000000000E+03 0.  1.
        -52   -1    0    0    0    0 -0.00000000000E+00 -0.00000000000E+00 -0.64930732323E+04  0.65000000000E+04  0.30000000000E+03 0. -1.
     100001    1    1    2    0    0  0.11564615643E+04  0.45482773184E+02 -0.63943629642E+04  0.65000000000E+04  0.15050000000E+03 0. -1.
     100001    1    1    2    0    0 -0.11564615643E+04 -0.45482773184E+02  0.63943629642E+04  0.65000000000E+04  0.15050000000E+03 0.  1.
</event>
<event>
 4    1  0.5640637E-004  0.6500000E+04  0.7818608E-02  0.7223770E-01
         52   -1    0    0    0    0  0.00000000000E+00  0.00000000000E+00  0.64930732323E+04  0.65000000000E+04  0.30000000000E+03 0. -1.
        -52   -1    0    0    0    0 -0.00000000000E+00 -0.00000000000E+00 -0.64930732323E+04  0.65000000000E+04  0.30000000000E+03 0.  1.
     100001    1    1    2    0    0 -0.99539399257E+03 -0.91730140104E+03 -0.63557138615E+04  0.65000000000E+04  0.15050000000E+03 0.  1.
     100001    1    1    2    0    0  0.99539399257E+03  0.91730140104E+03  0.63557138615E+04  0.65000000000E+04  0.15050000000E+03 0. -1.
</event>
<event>
 4    1  0.5640637E-004  0.6500000E+04  0.7818608E-02  0.7223770E-01
         52   -1    0    0    0    0  0.00000000000E+00  0.00000000000E+00  0.64930732323E+04  0.65000000000E+04  0.30000000000E+03 0.  1.
        -52   -1    0    0    0    0 -0.00000000000E+00 -0.00000000000E+00 -0.64930732323E+04  0.65000000000E+04  0.30000000000E+03 0. -1.
     100001    1    1    2    0    0 -0.43997911190E+03  0.40961268544E+04 -0.50254863370E+04  0.65000000000E+04  0.15050000000E+03 0. -1.
     100001    1    1    2    0    0  0.43997911190E+03 -0.40961268544E+04  0.50254863370E+04  0.65000000000E+04  0.15050000000E+03 0.  1.
</event>
<event>
 4    1  0.5640637E-004  0.6500000E+04  0.7818608E-02  0.7223770E-01
         52   -1    0    0    0    0  0.00000000000E+00  0.00000000000E+00  0.64930732323E+04  0.65000000000E+04  0.30000000000E+03 0.  1.
        -52   -1    0    0    0    0 -0.00000000000E+00 -0.00000000000E+00 -0.64930732323E+04  0.65000000000E+04  0.30000000000E+03 0. -1.
     100001    1    1    2    0    0 -0.32905930812E+03 -0.29502743047E+03 -0.64832112828E+04  0.65000000000E+04  0.15050000000E+03 0. -1.
     100001    1    1    2    0    0  0.32905930812E+03  0.29502743047E+03  0.64832112828E+04  0.65000000000E+04  0.15050000000E+03 0.  1.
</event>
<event>
 4    1  0.5640637E-004  0.6500000E+04  0.7818608E-02  0.7223770E-01
         52   -1    0    0    0    0  0.00000000000E+00  0.00000000000E+00  0.64930732323E+04  0.65000000000E+04  0.30000000000E+03 0. -1.
        -52   -1    0    0    0    0 -0.00000000000E+00 -0.00000000000E+00 -0.64930732323E+04  0.65000000000E+04  0.30000000000E+03 0.  1.
     100001    1    1    2    0    0 -0.85373426529E+03  0.64384998677E+04  0.21025462593E+03  0.65000000000E+04  0.15050000000E+03 0. -1.
     100001    1    1    2    0    0  0.85373426529E+03 -0.64384998677E+04 -0.21025462593E+03  0.65000000000E+04  0.15050000000E+03 0.  1.
</event>
<event>
 4    1  0.5640637E-004  0.6500000E+04  0.7818608E-02  0.7223770E-01
         52   -1    0    0    0    0  0.00000000000E+00  0.00000000000E+00  0.64930732323E+04  0.65000000000E+04  0.30000000000E+03 0.  1.
        -52   -1    0    0    0    0 -0.00000000000E+00 -0.00000000000E+00 -0.64930732323E+04  0.65000000000E+04  0.30000000000E+03 0. -1.
     100001    1    1    2    0    0 -0.73236463883E+02  0.50751900111E+03 -0.64779943373E+04  0.65000000000E+04  0.15050000000E+03 0. -1.
     100001    1    1    2    0    0  0.73236463883E+02 -0.50751900111E+03  0.64779943373E+04  0.65000000000E+04  0.15050000000E+03 0.  1.
</event>
<event>
 4    1  0.5640637E-004  0.6500000E+04  0.7818608E-02  0.7223770E-01
         52   -1    0    0    0    0  0.00000000000E+00  0.00000000000E+00  0.64930732323E+04  0.65000000000E+04  0.30000000000E+03 0.  1.
        -52   -1    0    0    0    0 -0.00000000000E+00 -0.00000000000E+00 -0.64930732323E+04  0.65000000000E+04  0.30000000000E+03 0. -1.
     100001    1    1    2    0    0 -0.15857831124E+04 -0.35945028357E+04 -0.51761173706E+04  0.65000000000E+04  0.15050000000E+03 0. -1.
     100001    1    1    2    0    0  0.15857831124E+04  0.35945028357E+04  0.51761173706E+04  0.65000000000E+04  0.15050000000E+03 0.  1.
</event>
<event>
 4    1  0.5640637E-004  0.6500000E+04  0.7818608E-02  0.7223770E-01
         52   -1    0    0    0    0  0.00000000000E+00  0.00000000000E+00  0.64930732323E+04  0.65000000000E+04  0.30000000000E+03 0. -1.
        -52   -1    0    0    0    0 -0.00000000000E+00 -0.00000000000E+00 -0.64930732323E+04  0.65000000000E+04  0.30000000000E+03 0.  1.
     100001    1    1    2    0    0 -0.17567502147E+04  0.33909612281E+04 -0.52576192695E+04  0.65000000000E+04  0.15050000000E+03 0.  1.
     100001    1    1    2    0    0  0.17567502147E+04 -0.33909612281E+04  0.52576192695E+04  0.65000000000E+04  0.15050000000E+03 0. -1.
</event>
<event>
 4    1  0.5640637E-004  0.6500000E+04  0.7818608E-02  0.7223770E-01
         52   -1    0    0    0    0  0.00000000000E+00  0.00000000000E+00  0.64930732323E+04  0.65000000000E+04  0.30000000000E+03 0.  1.
        -52   -1    0    0    0    0 -0.00000000000E+00 -0.00000000000E+00 -0.64930732323E+04  0.65000000000E+04  0.30000000000E+03 0. -1.
     100001    1    1    2    0    0  0.18566404795E+04  0.30479478451E+04  0.54304925940E+04  0.65000000000E+04  0.15050000000E+03 0.  1.
     100001    1    1    2    0    0 -0.18566404795E+04 -0.30479478451E+04 -0.54304925940E+04  0.65000000000E+04  0.15050000000E+03 0. -1.
</event>
<event>
 4    1  0.5640637E-004  0.6500000E+04  0.7818608E-02  0.7223770E-01
         52   -1    0    0    0    0  0.00000000000E+00  0.00000000000E+00  0.64930732323E+04  0.65000000000E+04  0.30000000000E+03 0.  1.
        -52   -1    0    0    0    0 -0.00000000000E+00 -0.00000000000E+00 -0.64930732323E+04  0.65000000000E+04  0.30000000000E+03 0. -1.
     100001    1    1    2    0    0 -0.60023633016E+02 -0.74711072200E+03  0.64548874880E+04  0.65000000000E+04  0.15050000000E+03 0.  1.
     100001    1    1    2    0    0  0.60023633016E+02  0.74711072200E+03 -0.64548874880E+04  0.65000000000E+04  0.15050000000E+03 0. -1.
</event>
<event>
 4    1  0.5640637E-004  0.6500000E+04  0.7818608E-02  0.7223770E-01
         52   -1    0    0    0    0  0.00000000000E+00  0.00000000000E+00  0.64930732323E+04  0.65000000000E+04  0.30000000000E+03 0. -1.
        -52   -1    0    0    0    0 -0.00000000000E+00 -0.00000000000E+00 -0.64930732323E+04  0.65000000000E+04  0.30000000000E+03 0.  1.
     100001    1    1    2    0    0 -0.87251068043E+03  0.44218588909E+04  0.46811578495E+04  0.65000000000E+04  0.15050000000E+03 0. -1.
     100001    1    1    2    0    0  0.87251068043E+03 -0.44218588909E+04 -0.46811578495E+04  0.65000000000E+04  0.15050000000E+03 0.  1.
</event>
<event>
 4    1  0.5640637E-004  0.6500000E+04  0.7818608E-02  0.7223770E-01
         52   -1    0    0    0    0  0.00000000000E+00  0.00000000000E+00  0.64930732323E+04  0.65000000000E+04  0.30000000000E+03 0.  1.
        -52   -1    0    0    0    0 -0.00000000000E+00 -0.00000000000E+00 -0.64930732323E+04  0.65000000000E+04  0.30000000000E+03 0. -1.
     100001    1    1    2    0    0 -0.31243770875E+03 -0.30641640006E+03 -0.64835053341E+04  0.65000000000E+04  0.15050000000E+03 0. -1.
     100001    1    1    2    0    0  0.31243770875E+03  0.30641640006E+03  0.64835053341E+04  0.65000000000E+04  0.15050000000E+03 0.  1.
</event>
<event>
 4    1  0.5640637E-004  0.6500000E+04  0.7818608E-02  0.7223770E-01
         52   -1    0    0    0    0  0.00000000000E+00  0.00000000000E+00  0.64930732323E+04  0.65000000000E+04  0.30000000000E+03 0. -1.
        -52   -1    0    0    0    0 -0.00000000000E+00 -0.00000000000E+00 -0.64930732323E+04  0.65000000000E+04  0.30000000000E+03 0.  1.
     100001    1    1    2    0    0  0.64835159664E+02 -0.30953696123E+03 -0.64905572197E+04  0.65000000000E+04  0.15050000000E+03 0.  1.
     100001    1    1    2    0    0 -0.64835159664E+02  0.30953696123E+03  0.64905572197E+04  0.65000000000E+04  0.15050000000E+03 0. -1.
</event>
<event>
 4    1  0.5640637E-004  0.6500000E+04  0.7818608E-02  0.7223770E-01
         52   -1    0    0    0    0  0.00000000000E+00  0.00000000000E+00  0.64930732323E+04  0.65000000000E+04  0.30000000000E+03 0.  1.
        -52   -1    0    0    0    0 -0.00000000000E+00 -0.00000000000E+00 -0.64930732323E+04  0.65000000000E+04  0.30000000000E+03 0.  1.
     100001    1    1    2    0    0  0.12424901385E+03 -0.28295978835E+03  0.64909048438E+04  0.65000000000E+04  0.15050000000E+03 0.  1.
     100001    1    1    2    0    0 -0.12424901385E+03  0.28295978835E+03 -0.64909048438E+04  0.65000000000E+04  0.15050000000E+03 0.  1.
</event>
<event>
 4    1  0.5640637E-004  0.6500000E+04  0.7818608E-02  0.7223770E-01
         52   -1    0    0    0    0  0.00000000000E+00  0.00000000000E+00  0.64930732323E+04  0.65000000000E+04  0.30000000000E+03 0.  1.
        -52   -1    0    0    0    0 -0.00000000000E+00 -0.00000000000E+00 -0.64930732323E+04  0.65000000000E+04  0.30000000000E+03 0. -1.
     100001    1    1    2    0    0  0.17250759413E+04  0.54751319458E+04  0.30453887966E+04  0.65000000000E+04  0.15050000000E+03 0.  1.
     100001    1    1    2    0    0 -0.17250759413E+04 -0.54751319458E+04 -0.30453887966E+04  0.65000000000E+04  0.15050000000E+03 0. -1.
</event>
<event>
 4    1  0.5640637E-004  0.6500000E+04  0.7818608E-02  0.7223770E-01
         52   -1    0    0    0    0  0.00000000000E+00  0.00000000000E+00  0.64930732323E+04  0.65000000000E+04  0.30000000000E+03 0.  1.
        -52   -1    0    0    0    0 -0.00000000000E+00 -0.00000000000E+00 -0.64930732323E+04  0.65000000000E+04  0.30000000000E+03 0. -1.
     100001    1    1    2    0    0  0.93127214448E+03 -0.20854830771E+03 -0.64277981880E+04  0.65000000000E+04  0.15050000000E+03 0. -1.
     100001    1    1    2    0    0 -0.93127214448E+03  0.20854830771E+03  0.64277981880E+04  0.65000000000E+04  0.15050000000E+03 0.  1.
</event>
<event>
 4    1  0.5640637E-004  0.6500000E+04  0.7818608E-02  0.7223770E-01
         52   -1    0    0    0    0  0.00000000000E+00  0.00000000000E+00  0.64930732323E+04  0.65000000000E+04  0.30000000000E+03 0.  1.
        -52   -1    0    0    0    0 -0.00000000000E+00 -0.00000000000E+00 -0.64930732323E+04  0.65000000000E+04  0.30000000000E+03 0. -1.
     100001    1    1    2    0    0 -0.17081540977E+04 -0.17847930877E+04  0.60103305202E+04  0.65000000000E+04  0.15050000000E+03 0.  1.
     100001    1    1    2    0    0  0.17081540977E+04  0.17847930877E+04 -0.60103305202E+04  0.65000000000E+04  0.15050000000E+03 0. -1.
</event>
<event>
 4    1  0.5640637E-004  0.6500000E+04  0.7818608E-02  0.7223770E-01
         52   -1    0    0    0    0  0.00000000000E+00  0.00000000000E+00  0.64930732323E+04  0.65000000000E+04  0.30000000000E+03 0.  1.
        -52   -1    0    0    0    0 -0.00000000000E+00 -0.00000000000E+00 -0.64930732323E+04  0.65000000000E+04  0.30000000000E+03 0. -1.
     100001    1    1    2    0    0 -0.20939566719E+04  0.18296495423E+04 -0.58732510383E+04  0.65000000000E+04  0.15050000000E+03 0. -1.
     100001    1    1    2    0    0  0.20939566719E+04 -0.18296495423E+04  0.58732510383E+04  0.65000000000E+04  0.15050000000E+03 0.  1.
</event>
<event>
 4    1  0.5640637E-004  0.6500000E+04  0.7818608E-02  0.7223770E-01
         52   -1    0    0    0    0  0.00000000000E+00  0.00000000000E+00  0.64930732323E+04  0.65000000000E+04  0.30000000000E+03 0. -1.
        -52   -1    0    0    0    0 -0.00000000000E+00 -0.00000000000E+00 -0.64930732323E+04  0.65000000000E+04  0.30000000000E+03 0.  1.
     100001    1    1    2    0    0 -0.98003824359E+02  0.35360632497E+02  0.64974221524E+04  0.65000000000E+04  0.15050000000E+03 0. -1.
     100001    1    1    2    0    0  0.98003824359E+02 -0.35360632497E+02 -0.64974221524E+04  0.65000000000E+04  0.15050000000E+03 0.  1.
</event>
<event>
 4    1  0.5640637E-004  0.6500000E+04  0.7818608E-02  0.7223770E-01
         52   -1    0    0    0    0  0.00000000000E+00  0.00000000000E+00  0.64930732323E+04  0.65000000000E+04  0.30000000000E+03 0. -1.
        -52   -1    0    0    0    0 -0.00000000000E+00 -0.00000000000E+00 -0.64930732323E+04  0.65000000000E+04  0.30000000000E+03 0.  1.
     100001    1    1    2    0    0  0.81110923416E+01  0.55713322612E+03  0.64743251794E+04  0.65000000000E+04  0.15050000000E+03 0. -1.
     100001    1    1    2    0    0 -0.81110923416E+01 -0.55713322612E+03 -0.64743251794E+04  0.65000000000E+04  0.15050000000E+03 0.  1.
</event>
<event>
 4    1  0.8741481E-004  0.6500000E+04  0.7818608E-02  0.7223770E-01
         52   -1    0    0    0    0  0.00000000000E+00  0.00000000000E+00  0.64930732323E+04  0.65000000000E+04  0.30000000000E+03 0. -1.
        -52   -1    0    0    0    0 -0.00000000000E+00 -0.00000000000E+00 -0.64930732323E+04  0.65000000000E+04  0.30000000000E+03 0. -1.
     100001    1    1    2    0    0 -0.23932487981E+02 -0.11783158981E+03 -0.64971449655E+04  0.65000000000E+04  0.15050000000E+03 0. -1.
     100001    1    1    2    0    0  0.23932487981E+02  0.11783158981E+03  0.64971449655E+04  0.65000000000E+04  0.15050000000E+03 0. -1.
</event>
<event>
 4    1  0.5640637E-004  0.6500000E+04  0.7818608E-02  0.7223770E-01
         52   -1    0    0    0    0  0.00000000000E+00  0.00000000000E+00  0.64930732323E+04  0.65000000000E+04  0.30000000000E+03 0. -1.
        -52   -1    0    0    0    0 -0.00000000000E+00 -0.00000000000E+00 -0.64930732323E+04  0.65000000000E+04  0.30000000000E+03 0.  1.
     100001    1    1    2    0    0 -0.52672659733E+02  0.24426831151E+03  0.64934511882E+04  0.65000000000E+04  0.15050000000E+03 0. -1.
     100001    1    1    2    0    0  0.52672659733E+02 -0.24426831151E+03 -0.64934511882E+04  0.65000000000E+04  0.15050000000E+03 0.  1.
</event>
<event>
 4    1  0.5640637E-004  0.6500000E+04  0.7818608E-02  0.7223770E-01
         52   -1    0    0    0    0  0.00000000000E+00  0.00000000000E+00  0.64930732323E+04  0.65000000000E+04  0.30000000000E+03 0.  1.
        -52   -1    0    0    0    0 -0.00000000000E+00 -0.00000000000E+00 -0.64930732323E+04  0.65000000000E+04  0.30000000000E+03 0.  1.
     100001    1    1    2    0    0 -0.34960404660E+03  0.24827586560E+03 -0.64840948370E+04  0.65000000000E+04  0.15050000000E+03 0.  1.
     100001    1    1    2    0    0  0.34960404660E+03 -0.24827586560E+03  0.64840948370E+04  0.65000000000E+04  0.15050000000E+03 0.  1.
</event>
<event>
 4    1  0.5640637E-004  0.6500000E+04  0.7818608E-02  0.7223770E-01
         52   -1    0    0    0    0  0.00000000000E+00  0.00000000000E+00  0.64930732323E+04  0.65000000000E+04  0.30000000000E+03 0.  1.
        -52   -1    0    0    0    0 -0.00000000000E+00 -0.00000000000E+00 -0.64930732323E+04  0.65000000000E+04  0.30000000000E+03 0. -1.
     100001    1    1    2    0    0  0.84947342560E+03  0.12531147738E+04 -0.63194499771E+04  0.65000000000E+04  0.15050000000E+03 0. -1.
     100001    1    1    2    0    0 -0.84947342560E+03 -0.12531147738E+04  0.63194499771E+04  0.65000000000E+04  0.15050000000E+03 0.  1.
</event>
<event>
 4    1  0.5640637E-004  0.6500000E+04  0.7818608E-02  0.7223770E-01
         52   -1    0    0    0    0  0.00000000000E+00  0.00000000000E+00  0.64930732323E+04  0.65000000000E+04  0.30000000000E+03 0.  1.
        -52   -1    0    0    0    0 -0.00000000000E+00 -0.00000000000E+00 -0.64930732323E+04  0.65000000000E+04  0.30000000000E+03 0. -1.
     100001    1    1    2    0    0  0.11194671593E+04  0.32944045451E+04  0.54882639990E+04  0.65000000000E+04  0.15050000000E+03 0.  1.
     100001    1    1    2    0    0 -0.11194671593E+04 -0.32944045451E+04 -0.54882639990E+04  0.65000000000E+04  0.15050000000E+03 0. -1.
</event>
<event>
 4    1  0.5640637E-004  0.6500000E+04  0.7818608E-02  0.7223770E-01
         52   -1    0    0    0    0  0.00000000000E+00  0.00000000000E+00  0.64930732323E+04  0.65000000000E+04  0.30000000000E+03 0. -1.
        -52   -1    0    0    0    0 -0.00000000000E+00 -0.00000000000E+00 -0.64930732323E+04  0.65000000000E+04  0.30000000000E+03 0. -1.
     100001    1    1    2    0    0 -0.10756602799E+03 -0.72182326770E+03  0.64571472393E+04  0.65000000000E+04  0.15050000000E+03 0. -1.
     100001    1    1    2    0    0  0.10756602799E+03  0.72182326770E+03 -0.64571472393E+04  0.65000000000E+04  0.15050000000E+03 0. -1.
</event>
<event>
 4    1  0.5640637E-004  0.6500000E+04  0.7818608E-02  0.7223770E-01
         52   -1    0    0    0    0  0.00000000000E+00  0.00000000000E+00  0.64930732323E+04  0.65000000000E+04  0.30000000000E+03 0.  1.
        -52   -1    0    0    0    0 -0.00000000000E+00 -0.00000000000E+00 -0.64930732323E+04  0.65000000000E+04  0.30000000000E+03 0. -1.
     100001    1    1    2    0    0 -0.36953426872E+03 -0.22089155758E+03  0.64839803434E+04  0.65000000000E+04  0.15050000000E+03 0.  1.
     100001    1    1    2    0    0  0.36953426872E+03  0.22089155758E+03 -0.64839803434E+04  0.65000000000E+04  0.15050000000E+03 0. -1.
</event>
<event>
 4    1  0.5640637E-004  0.6500000E+04  0.7818608E-02  0.7223770E-01
         52   -1    0    0    0    0  0.00000000000E+00  0.00000000000E+00  0.64930732323E+04  0.65000000000E+04  0.30000000000E+03 0.  1.
        -52   -1    0    0    0    0 -0.00000000000E+00 -0.00000000000E+00 -0.64930732323E+04  0.65000000000E+04  0.30000000000E+03 0. -1.
     100001    1    1    2    0    0 -0.14721747905E+04  0.24613534204E+04  0.58311054249E+04  0.65000000000E+04  0.15050000000E+03 0.  1.
     100001    1    1    2    0    0  0.14721747905E+04 -0.24613534204E+04 -0.58311054249E+04  0.65000000000E+04  0.15050000000E+03 0. -1.
</event>
<event>
 4    1  0.5640637E-004  0.6500000E+04  0.7818608E-02  0.7223770E-01
         52   -1    0    0    0    0  0.00000000000E+00  0.00000000000E+00  0.64930732323E+04  0.65000000000E+04  0.30000000000E+03 0. -1.
        -52   -1    0    0    0    0 -0.00000000000E+00 -0.00000000000E+00 -0.64930732323E+04  0.65000000000E+04  0.30000000000E+03 0.  1.
     100001    1    1    2    0    0  0.52027282757E+03 -0.39270735285E+03 -0.64654811785E+04  0.65000000000E+04  0.15050000000E+03 0.  1.
     100001    1    1    2    0    0 -0.52027282757E+03  0.39270735285E+03  0.64654811785E+04  0.65000000000E+04  0.15050000000E+03 0. -1.
</event>
<event>
 4    1  0.5640637E-004  0.6500000E+04  0.7818608E-02  0.7223770E-01
         52   -1    0    0    0    0  0.00000000000E+00  0.00000000000E+00  0.64930732323E+04  0.65000000000E+04  0.30000000000E+03 0.  1.
        -52   -1    0    0    0    0 -0.00000000000E+00 -0.00000000000E+00 -0.64930732323E+04  0.65000000000E+04  0.30000000000E+03 0. -1.
     100001    1    1    2    0    0  0.12293253958E+04  0.20704227356E+04  0.60356821087E+04  0.65000000000E+04  0.15050000000E+03 0.  1.
     100001    1    1    2    0    0 -0.12293253958E+04 -0.20704227356E+04 -0.60356821087E+04  0.65000000000E+04  0.15050000000E+03 0. -1.
</event>
<event>
 4    1  0.5640637E-004  0.6500000E+04  0.7818608E-02  0.7223770E-01
         52   -1    0    0    0    0  0.00000000000E+00  0.00000000000E+00  0.64930732323E+04  0.65000000000E+04  0.30000000000E+03 0. -1.
        -52   -1    0    0    0    0 -0.00000000000E+00 -0.00000000000E+00 -0.64930732323E+04  0.65000000000E+04  0.30000000000E+03 0.  1.
     100001    1    1    2    0    0  0.79729452863E+03 -0.91360312054E+02  0.64485133541E+04  0.65000000000E+04  0.15050000000E+03 0. -1.
     100001    1    1    2    0    0 -0.79729452863E+03  0.91360312054E+02 -0.64485133541E+04  0.65000000000E+04  0.15050000000E+03 0.  1.
</event>
<event>
 4    1  0.5640637E-004  0.6500000E+04  0.7818608E-02  0.7223770E-01
         52   -1    0    0    0    0  0.00000000000E+00  0.00000000000E+00  0.64930732323E+04  0.65000000000E+04  0.30000000000E+03 0. -1.
        -52   -1    0    0    0    0 -0.00000000000E+00 -0.00000000000E+00 -0.64930732323E+04  0.65000000000E+04  0.30000000000E+03 0.  1.
     100001    1    1    2    0    0 -0.53643633395E+04  0.36653273812E+04 -0.12779241055E+03  0.65000000000E+04  0.15050000000E+03 0. -1.
     100001    1    1    2    0    0  0.53643633395E+04 -0.36653273812E+04  0.12779241055E+03  0.65000000000E+04  0.15050000000E+03 0.  1.
</event>
<event>
 4    1  0.5640637E-004  0.6500000E+04  0.7818608E-02  0.7223770E-01
         52   -1    0    0    0    0  0.00000000000E+00  0.00000000000E+00  0.64930732323E+04  0.65000000000E+04  0.30000000000E+03 0. -1.
        -52   -1    0    0    0    0 -0.00000000000E+00 -0.00000000000E+00 -0.64930732323E+04  0.65000000000E+04  0.30000000000E+03 0.  1.
     100001    1    1    2    0    0 -0.31983486629E+03 -0.35981153059E+03 -0.64804005332E+04  0.65000000000E+04  0.15050000000E+03 0.  1.
     100001    1    1    2    0    0  0.31983486629E+03  0.35981153059E+03  0.64804005332E+04  0.65000000000E+04  0.15050000000E+03 0. -1.
</event>
<event>
 4    1  0.5640637E-004  0.6500000E+04  0.7818608E-02  0.7223770E-01
         52   -1    0    0    0    0  0.00000000000E+00  0.00000000000E+00  0.64930732323E+04  0.65000000000E+04  0.30000000000E+03 0. -1.
        -52   -1    0    0    0    0 -0.00000000000E+00 -0.00000000000E+00 -0.64930732323E+04  0.65000000000E+04  0.30000000000E+03 0.  1.
     100001    1    1    2    0    0 -0.11144696322E+04 -0.17141846298E+03 -0.63996814686E+04  0.65000000000E+04  0.15050000000E+03 0.  1.
     100001    1    1    2    0    0  0.11144696322E+04  0.17141846298E+03  0.63996814686E+04  0.65000000000E+04  0.15050000000E+03 0. -1.
</event>
<event>
 4    1  0.5640637E-004  0.6500000E+04  0.7818608E-02  0.7223770E-01
         52   -1    0    0    0    0  0.00000000000E+00  0.00000000000E+00  0.64930732323E+04  0.65000000000E+04  0.30000000000E+03 0.  1.
        -52   -1    0    0    0    0 -0.00000000000E+00 -0.00000000000E+00 -0.64930732323E+04  0.65000000000E+04  0.30000000000E+03 0. -1.
     100001    1    1    2    0    0 -0.34838988677E+03  0.41279527534E+03  0.64757682399E+04  0.65000000000E+04  0.15050000000E+03 0.  1.
     100001    1    1    2    0    0  0.34838988677E+03 -0.41279527534E+03 -0.64757682399E+04  0.65000000000E+04  0.15050000000E+03 0. -1.
</event>
<event>
 4    1  0.5640637E-004  0.6500000E+04  0.7818608E-02  0.7223770E-01
         52   -1    0    0    0    0  0.00000000000E+00  0.00000000000E+00  0.64930732323E+04  0.65000000000E+04  0.30000000000E+03 0. -1.
        -52   -1    0    0    0    0 -0.00000000000E+00 -0.00000000000E+00 -0.64930732323E+04  0.65000000000E+04  0.30000000000E+03 0.  1.
     100001    1    1    2    0    0 -0.18072003284E+03  0.58046936712E+04 -0.29155139176E+04  0.65000000000E+04  0.15050000000E+03 0.  1.
     100001    1    1    2    0    0  0.18072003284E+03 -0.58046936712E+04  0.29155139176E+04  0.65000000000E+04  0.15050000000E+03 0. -1.
</event>
<event>
 4    1  0.5640637E-004  0.6500000E+04  0.7818608E-02  0.7223770E-01
         52   -1    0    0    0    0  0.00000000000E+00  0.00000000000E+00  0.64930732323E+04  0.65000000000E+04  0.30000000000E+03 0.  1.
        -52   -1    0    0    0    0 -0.00000000000E+00 -0.00000000000E+00 -0.64930732323E+04  0.65000000000E+04  0.30000000000E+03 0. -1.
     100001    1    1    2    0    0  0.30958581759E+04  0.92169471207E+03 -0.56385716952E+04  0.65000000000E+04  0.15050000000E+03 0. -1.
     100001    1    1    2    0    0 -0.30958581759E+04 -0.92169471207E+03  0.56385716952E+04  0.65000000000E+04  0.15050000000E+03 0.  1.
</event>
<event>
 4    1  0.5640637E-004  0.6500000E+04  0.7818608E-02  0.7223770E-01
         52   -1    0    0    0    0  0.00000000000E+00  0.00000000000E+00  0.64930732323E+04  0.65000000000E+04  0.30000000000E+03 0. -1.
        -52   -1    0    0    0    0 -0.00000000000E+00 -0.00000000000E+00 -0.64930732323E+04  0.65000000000E+04  0.30000000000E+03 0.  1.
     100001    1    1    2    0    0 -0.64115299776E+04 -0.99540313193E+03 -0.35889511176E+03  0.65000000000E+04  0.15050000000E+03 0. -1.
     100001    1    1    2    0    0  0.64115299776E+04  0.99540313193E+03  0.35889511176E+03  0.65000000000E+04  0.15050000000E+03 0.  1.
</event>
<event>
 4    1  0.5640637E-004  0.6500000E+04  0.7818608E-02  0.7223770E-01
         52   -1    0    0    0    0  0.00000000000E+00  0.00000000000E+00  0.64930732323E+04  0.65000000000E+04  0.30000000000E+03 0.  1.
        -52   -1    0    0    0    0 -0.00000000000E+00 -0.00000000000E+00 -0.64930732323E+04  0.65000000000E+04  0.30000000000E+03 0. -1.
     100001    1    1    2    0    0 -0.27030232681E+03 -0.50978215952E+03  0.64725890146E+04  0.65000000000E+04  0.15050000000E+03 0.  1.
     100001    1    1    2    0    0  0.27030232681E+03  0.50978215952E+03 -0.64725890146E+04  0.65000000000E+04  0.15050000000E+03 0. -1.
</event>
<event>
 4    1  0.5640637E-004  0.6500000E+04  0.7818608E-02  0.7223770E-01
         52   -1    0    0    0    0  0.00000000000E+00  0.00000000000E+00  0.64930732323E+04  0.65000000000E+04  0.30000000000E+03 0. -1.
        -52   -1    0    0    0    0 -0.00000000000E+00 -0.00000000000E+00 -0.64930732323E+04  0.65000000000E+04  0.30000000000E+03 0. -1.
     100001    1    1    2    0    0  0.32827739784E+03 -0.35041924999E+03 -0.64804930406E+04  0.65000000000E+04  0.15050000000E+03 0. -1.
     100001    1    1    2    0    0 -0.32827739784E+03  0.35041924999E+03  0.64804930406E+04  0.65000000000E+04  0.15050000000E+03 0. -1.
</event>
<event>
 4    1  0.5640637E-004  0.6500000E+04  0.7818608E-02  0.7223770E-01
         52   -1    0    0    0    0  0.00000000000E+00  0.00000000000E+00  0.64930732323E+04  0.65000000000E+04  0.30000000000E+03 0.  1.
        -52   -1    0    0    0    0 -0.00000000000E+00 -0.00000000000E+00 -0.64930732323E+04  0.65000000000E+04  0.30000000000E+03 0. -1.
     100001    1    1    2    0    0  0.55855192484E+03  0.12569537790E+03 -0.64729877313E+04  0.65000000000E+04  0.15050000000E+03 0. -1.
     100001    1    1    2    0    0 -0.55855192484E+03 -0.12569537790E+03  0.64729877313E+04  0.65000000000E+04  0.15050000000E+03 0.  1.
</event>
<event>
 4    1  0.5640637E-004  0.6500000E+04  0.7818608E-02  0.7223770E-01
         52   -1    0    0    0    0  0.00000000000E+00  0.00000000000E+00  0.64930732323E+04  0.65000000000E+04  0.30000000000E+03 0. -1.
        -52   -1    0    0    0    0 -0.00000000000E+00 -0.00000000000E+00 -0.64930732323E+04  0.65000000000E+04  0.30000000000E+03 0.  1.
     100001    1    1    2    0    0  0.51485905222E+04  0.33396103188E+04  0.21369062458E+04  0.65000000000E+04  0.15050000000E+03 0. -1.
     100001    1    1    2    0    0 -0.51485905222E+04 -0.33396103188E+04 -0.21369062458E+04  0.65000000000E+04  0.15050000000E+03 0.  1.
</event>
<event>
 4    1  0.5640637E-004  0.6500000E+04  0.7818608E-02  0.7223770E-01
         52   -1    0    0    0    0  0.00000000000E+00  0.00000000000E+00  0.64930732323E+04  0.65000000000E+04  0.30000000000E+03 0.  1.
        -52   -1    0    0    0    0 -0.00000000000E+00 -0.00000000000E+00 -0.64930732323E+04  0.65000000000E+04  0.30000000000E+03 0. -1.
     100001    1    1    2    0    0  0.36502793038E+03  0.14213620575E+04 -0.63303897401E+04  0.65000000000E+04  0.15050000000E+03 0. -1.
     100001    1    1    2    0    0 -0.36502793038E+03 -0.14213620575E+04  0.63303897401E+04  0.65000000000E+04  0.15050000000E+03 0.  1.
</event>
<event>
 4    1  0.5640637E-004  0.6500000E+04  0.7818608E-02  0.7223770E-01
         52   -1    0    0    0    0  0.00000000000E+00  0.00000000000E+00  0.64930732323E+04  0.65000000000E+04  0.30000000000E+03 0.  1.
        -52   -1    0    0    0    0 -0.00000000000E+00 -0.00000000000E+00 -0.64930732323E+04  0.65000000000E+04  0.30000000000E+03 0. -1.
     100001    1    1    2    0    0 -0.13196122008E+04  0.23560235734E+02  0.63628152814E+04  0.65000000000E+04  0.15050000000E+03 0.  1.
     100001    1    1    2    0    0  0.13196122008E+04 -0.23560235734E+02 -0.63628152814E+04  0.65000000000E+04  0.15050000000E+03 0. -1.
</event>
<event>
 4    1  0.5640637E-004  0.6500000E+04  0.7818608E-02  0.7223770E-01
         52   -1    0    0    0    0  0.00000000000E+00  0.00000000000E+00  0.64930732323E+04  0.65000000000E+04  0.30000000000E+03 0. -1.
        -52   -1    0    0    0    0 -0.00000000000E+00 -0.00000000000E+00 -0.64930732323E+04  0.65000000000E+04  0.30000000000E+03 0.  1.
     100001    1    1    2    0    0 -0.51100589182E+03  0.52041043900E+03 -0.64571972018E+04  0.65000000000E+04  0.15050000000E+03 0.  1.
     100001    1    1    2    0    0  0.51100589182E+03 -0.52041043900E+03  0.64571972018E+04  0.65000000000E+04  0.15050000000E+03 0. -1.
</event>
<event>
 4    1  0.5640637E-004  0.6500000E+04  0.7818608E-02  0.7223770E-01
         52   -1    0    0    0    0  0.00000000000E+00  0.00000000000E+00  0.64930732323E+04  0.65000000000E+04  0.30000000000E+03 0.  1.
        -52   -1    0    0    0    0 -0.00000000000E+00 -0.00000000000E+00 -0.64930732323E+04  0.65000000000E+04  0.30000000000E+03 0.  1.
     100001    1    1    2    0    0  0.10615558355E+03  0.38928844391E+02  0.64972736811E+04  0.65000000000E+04  0.15050000000E+03 0.  1.
     100001    1    1    2    0    0 -0.10615558355E+03 -0.38928844391E+02 -0.64972736811E+04  0.65000000000E+04  0.15050000000E+03 0.  1.
</event>
<event>
 4    1  0.5640637E-004  0.6500000E+04  0.7818608E-02  0.7223770E-01
         52   -1    0    0    0    0  0.00000000000E+00  0.00000000000E+00  0.64930732323E+04  0.65000000000E+04  0.30000000000E+03 0.  1.
        -52   -1    0    0    0    0 -0.00000000000E+00 -0.00000000000E+00 -0.64930732323E+04  0.65000000000E+04  0.30000000000E+03 0. -1.
     100001    1    1    2    0    0 -0.14651261515E+04  0.26796001110E+03 -0.63252630414E+04  0.65000000000E+04  0.15050000000E+03 0. -1.
     100001    1    1    2    0    0  0.14651261515E+04 -0.26796001110E+03  0.63252630414E+04  0.65000000000E+04  0.15050000000E+03 0.  1.
</event>
<event>
 4    1  0.5640637E-004  0.6500000E+04  0.7818608E-02  0.7223770E-01
         52   -1    0    0    0    0  0.00000000000E+00  0.00000000000E+00  0.64930732323E+04  0.65000000000E+04  0.30000000000E+03 0. -1.
        -52   -1    0    0    0    0 -0.00000000000E+00 -0.00000000000E+00 -0.64930732323E+04  0.65000000000E+04  0.30000000000E+03 0.  1.
     100001    1    1    2    0    0 -0.15649521462E+03  0.54258899456E+02  0.64961461629E+04  0.65000000000E+04  0.15050000000E+03 0. -1.
     100001    1    1    2    0    0  0.15649521462E+03 -0.54258899456E+02 -0.64961461629E+04  0.65000000000E+04  0.15050000000E+03 0.  1.
</event>
<event>
 4    1  0.5640637E-004  0.6500000E+04  0.7818608E-02  0.7223770E-01
         52   -1    0    0    0    0  0.00000000000E+00  0.00000000000E+00  0.64930732323E+04  0.65000000000E+04  0.30000000000E+03 0.  1.
        -52   -1    0    0    0    0 -0.00000000000E+00 -0.00000000000E+00 -0.64930732323E+04  0.65000000000E+04  0.30000000000E+03 0.  1.
     100001    1    1    2    0    0 -0.18374547737E+02  0.46134760689E+03  0.64818338849E+04  0.65000000000E+04  0.15050000000E+03 0.  1.
     100001    1    1    2    0    0  0.18374547737E+02 -0.46134760689E+03 -0.64818338849E+04  0.65000000000E+04  0.15050000000E+03 0.  1.
</event>
<event>
 4    1  0.5640637E-004  0.6500000E+04  0.7818608E-02  0.7223770E-01
         52   -1    0    0    0    0  0.00000000000E+00  0.00000000000E+00  0.64930732323E+04  0.65000000000E+04  0.30000000000E+03 0. -1.
        -52   -1    0    0    0    0 -0.00000000000E+00 -0.00000000000E+00 -0.64930732323E+04  0.65000000000E+04  0.30000000000E+03 0.  1.
     100001    1    1    2    0    0 -0.14168107079E+04  0.27788007844E+04 -0.57007248108E+04  0.65000000000E+04  0.15050000000E+03 0.  1.
     100001    1    1    2    0    0  0.14168107079E+04 -0.27788007844E+04  0.57007248108E+04  0.65000000000E+04  0.15050000000E+03 0. -1.
</event>
<event>
 4    1  0.5640637E-004  0.6500000E+04  0.7818608E-02  0.7223770E-01
         52   -1    0    0    0    0  0.00000000000E+00  0.00000000000E+00  0.64930732323E+04  0.65000000000E+04  0.30000000000E+03 0.  1.
        -52   -1    0    0    0    0 -0.00000000000E+00 -0.00000000000E+00 -0.64930732323E+04  0.65000000000E+04  0.30000000000E+03 0. -1.
     100001    1    1    2    0    0  0.34135145698E+04  0.14038751120E+04 -0.53483083963E+04  0.65000000000E+04  0.15050000000E+03 0. -1.
     100001    1    1    2    0    0 -0.34135145698E+04 -0.14038751120E+04  0.53483083963E+04  0.65000000000E+04  0.15050000000E+03 0.  1.
</event>
<event>
 4    1  0.5640637E-004  0.6500000E+04  0.7818608E-02  0.7223770E-01
         52   -1    0    0    0    0  0.00000000000E+00  0.00000000000E+00  0.64930732323E+04  0.65000000000E+04  0.30000000000E+03 0.  1.
        -52   -1    0    0    0    0 -0.00000000000E+00 -0.00000000000E+00 -0.64930732323E+04  0.65000000000E+04  0.30000000000E+03 0. -1.
     100001    1    1    2    0    0 -0.61946963120E+03  0.92052438486E+03  0.64028307789E+04  0.65000000000E+04  0.15050000000E+03 0.  1.
     100001    1    1    2    0    0  0.61946963120E+03 -0.92052438486E+03 -0.64028307789E+04  0.65000000000E+04  0.15050000000E+03 0. -1.
</event>
<event>
 4    1  0.5640637E-004  0.6500000E+04  0.7818608E-02  0.7223770E-01
         52   -1    0    0    0    0  0.00000000000E+00  0.00000000000E+00  0.64930732323E+04  0.65000000000E+04  0.30000000000E+03 0. -1.
        -52   -1    0    0    0    0 -0.00000000000E+00 -0.00000000000E+00 -0.64930732323E+04  0.65000000000E+04  0.30000000000E+03 0.  1.
     100001    1    1    2    0    0  0.14955831288E+04  0.66277394973E+03 -0.62889833476E+04  0.65000000000E+04  0.15050000000E+03 0.  1.
     100001    1    1    2    0    0 -0.14955831288E+04 -0.66277394973E+03  0.62889833476E+04  0.65000000000E+04  0.15050000000E+03 0. -1.
</event>
<event>
 4    1  0.5640637E-004  0.6500000E+04  0.7818608E-02  0.7223770E-01
         52   -1    0    0    0    0  0.00000000000E+00  0.00000000000E+00  0.64930732323E+04  0.65000000000E+04  0.30000000000E+03 0. -1.
        -52   -1    0    0    0    0 -0.00000000000E+00 -0.00000000000E+00 -0.64930732323E+04  0.65000000000E+04  0.30000000000E+03 0.  1.
     100001    1    1    2    0    0 -0.21829768602E+03 -0.46442598986E+03  0.64779629800E+04  0.65000000000E+04  0.15050000000E+03 0. -1.
     100001    1    1    2    0    0  0.21829768602E+03  0.46442598986E+03 -0.64779629800E+04  0.65000000000E+04  0.15050000000E+03 0.  1.
</event>
<event>
 4    1  0.5640637E-004  0.6500000E+04  0.7818608E-02  0.7223770E-01
         52   -1    0    0    0    0  0.00000000000E+00  0.00000000000E+00  0.64930732323E+04  0.65000000000E+04  0.30000000000E+03 0.  1.
        -52   -1    0    0    0    0 -0.00000000000E+00 -0.00000000000E+00 -0.64930732323E+04  0.65000000000E+04  0.30000000000E+03 0. -1.
     100001    1    1    2    0    0  0.23741976507E+04 -0.86827304553E+03  0.59863709527E+04  0.65000000000E+04  0.15050000000E+03 0.  1.
     100001    1    1    2    0    0 -0.23741976507E+04  0.86827304553E+03 -0.59863709527E+04  0.65000000000E+04  0.15050000000E+03 0. -1.
</event>
<event>
 4    1  0.5640637E-004  0.6500000E+04  0.7818608E-02  0.7223770E-01
         52   -1    0    0    0    0  0.00000000000E+00  0.00000000000E+00  0.64930732323E+04  0.65000000000E+04  0.30000000000E+03 0. -1.
        -52   -1    0    0    0    0 -0.00000000000E+00 -0.00000000000E+00 -0.64930732323E+04  0.65000000000E+04  0.30000000000E+03 0.  1.
     100001    1    1    2    0    0  0.19876991632E+04  0.13116735902E+03  0.61854019199E+04  0.65000000000E+04  0.15050000000E+03 0. -1.
     100001    1    1    2    0    0 -0.19876991632E+04 -0.13116735902E+03 -0.61854019199E+04  0.65000000000E+04  0.15050000000E+03 0.  1.
</event>
<event>
 4    1  0.5640637E-004  0.6500000E+04  0.7818608E-02  0.7223770E-01
         52   -1    0    0    0    0  0.00000000000E+00  0.00000000000E+00  0.64930732323E+04  0.65000000000E+04  0.30000000000E+03 0.  1.
        -52   -1    0    0    0    0 -0.00000000000E+00 -0.00000000000E+00 -0.64930732323E+04  0.65000000000E+04  0.30000000000E+03 0. -1.
     100001    1    1    2    0    0  0.40072308466E+03  0.12504164280E+01 -0.64858900080E+04  0.65000000000E+04  0.15050000000E+03 0. -1.
     100001    1    1    2    0    0 -0.40072308466E+03 -0.12504164280E+01  0.64858900080E+04  0.65000000000E+04  0.15050000000E+03 0.  1.
</event>
<event>
 4    1  0.5640637E-004  0.6500000E+04  0.7818608E-02  0.7223770E-01
         52   -1    0    0    0    0  0.00000000000E+00  0.00000000000E+00  0.64930732323E+04  0.65000000000E+04  0.30000000000E+03 0.  1.
        -52   -1    0    0    0    0 -0.00000000000E+00 -0.00000000000E+00 -0.64930732323E+04  0.65000000000E+04  0.30000000000E+03 0.  1.
     100001    1    1    2    0    0  0.44672450778E+02  0.65335786797E+02 -0.64977754160E+04  0.65000000000E+04  0.15050000000E+03 0.  1.
     100001    1    1    2    0    0 -0.44672450778E+02 -0.65335786797E+02  0.64977754160E+04  0.65000000000E+04  0.15050000000E+03 0.  1.
</event>
<event>
 4    1  0.5640637E-004  0.6500000E+04  0.7818608E-02  0.7223770E-01
         52   -1    0    0    0    0  0.00000000000E+00  0.00000000000E+00  0.64930732323E+04  0.65000000000E+04  0.30000000000E+03 0. -1.
        -52   -1    0    0    0    0 -0.00000000000E+00 -0.00000000000E+00 -0.64930732323E+04  0.65000000000E+04  0.30000000000E+03 0.  1.
     100001    1    1    2    0    0 -0.41480725393E+04 -0.94064710771E+03  0.49128430646E+04  0.65000000000E+04  0.15050000000E+03 0. -1.
     100001    1    1    2    0    0  0.41480725393E+04  0.94064710771E+03 -0.49128430646E+04  0.65000000000E+04  0.15050000000E+03 0.  1.
</event>
<event>
 4    1  0.5640637E-004  0.6500000E+04  0.7818608E-02  0.7223770E-01
         52   -1    0    0    0    0  0.00000000000E+00  0.00000000000E+00  0.64930732323E+04  0.65000000000E+04  0.30000000000E+03 0.  1.
        -52   -1    0    0    0    0 -0.00000000000E+00 -0.00000000000E+00 -0.64930732323E+04  0.65000000000E+04  0.30000000000E+03 0.  1.
     100001    1    1    2    0    0  0.20638435818E+03 -0.38289699815E+03  0.64836829916E+04  0.65000000000E+04  0.15050000000E+03 0.  1.
     100001    1    1    2    0    0 -0.20638435818E+03  0.38289699815E+03 -0.64836829916E+04  0.65000000000E+04  0.15050000000E+03 0.  1.
</event>
<event>
 4    1  0.5640637E-004  0.6500000E+04  0.7818608E-02  0.7223770E-01
         52   -1    0    0    0    0  0.00000000000E+00  0.00000000000E+00  0.64930732323E+04  0.65000000000E+04  0.30000000000E+03 0.  1.
        -52   -1    0    0    0    0 -0.00000000000E+00 -0.00000000000E+00 -0.64930732323E+04  0.65000000000E+04  0.30000000000E+03 0. -1.
     100001    1    1    2    0    0 -0.49884333299E+03 -0.98924713392E+03  0.64031160529E+04  0.65000000000E+04  0.15050000000E+03 0.  1.
     100001    1    1    2    0    0  0.49884333299E+03  0.98924713392E+03 -0.64031160529E+04  0.65000000000E+04  0.15050000000E+03 0. -1.
</event>
<event>
 4    1  0.5640637E-004  0.6500000E+04  0.7818608E-02  0.7223770E-01
         52   -1    0    0    0    0  0.00000000000E+00  0.00000000000E+00  0.64930732323E+04  0.65000000000E+04  0.30000000000E+03 0. -1.
        -52   -1    0    0    0    0 -0.00000000000E+00 -0.00000000000E+00 -0.64930732323E+04  0.65000000000E+04  0.30000000000E+03 0.  1.
     100001    1    1    2    0    0  0.29934021821E+04  0.13149119766E+04 -0.56158614317E+04  0.65000000000E+04  0.15050000000E+03 0.  1.
     100001    1    1    2    0    0 -0.29934021821E+04 -0.13149119766E+04  0.56158614317E+04  0.65000000000E+04  0.15050000000E+03 0. -1.
</event>
<event>
 4    1  0.5640637E-004  0.6500000E+04  0.7818608E-02  0.7223770E-01
         52   -1    0    0    0    0  0.00000000000E+00  0.00000000000E+00  0.64930732323E+04  0.65000000000E+04  0.30000000000E+03 0.  1.
        -52   -1    0    0    0    0 -0.00000000000E+00 -0.00000000000E+00 -0.64930732323E+04  0.65000000000E+04  0.30000000000E+03 0. -1.
     100001    1    1    2    0    0 -0.30004256839E+03 -0.17750422328E+03  0.64888994797E+04  0.65000000000E+04  0.15050000000E+03 0.  1.
     100001    1    1    2    0    0  0.30004256839E+03  0.17750422328E+03 -0.64888994797E+04  0.65000000000E+04  0.15050000000E+03 0. -1.
</event>
<event>
 4    1  0.5640637E-004  0.6500000E+04  0.7818608E-02  0.7223770E-01
         52   -1    0    0    0    0  0.00000000000E+00  0.00000000000E+00  0.64930732323E+04  0.65000000000E+04  0.30000000000E+03 0. -1.
        -52   -1    0    0    0    0 -0.00000000000E+00 -0.00000000000E+00 -0.64930732323E+04  0.65000000000E+04  0.30000000000E+03 0. -1.
     100001    1    1    2    0    0  0.98533974058E+01 -0.56235155693E+03 -0.64738715918E+04  0.65000000000E+04  0.15050000000E+03 0. -1.
     100001    1    1    2    0    0 -0.98533974058E+01  0.56235155693E+03  0.64738715918E+04  0.65000000000E+04  0.15050000000E+03 0. -1.
</event>
<event>
 4    1  0.5640637E-004  0.6500000E+04  0.7818608E-02  0.7223770E-01
         52   -1    0    0    0    0  0.00000000000E+00  0.00000000000E+00  0.64930732323E+04  0.65000000000E+04  0.30000000000E+03 0. -1.
        -52   -1    0    0    0    0 -0.00000000000E+00 -0.00000000000E+00 -0.64930732323E+04  0.65000000000E+04  0.30000000000E+03 0. -1.
     100001    1    1    2    0    0 -0.70677431208E+02  0.23412735672E+02 -0.64978308915E+04  0.65000000000E+04  0.15050000000E+03 0. -1.
     100001    1    1    2    0    0  0.70677431208E+02 -0.23412735672E+02  0.64978308915E+04  0.65000000000E+04  0.15050000000E+03 0. -1.
</event>
<event>
 4    1  0.5640637E-004  0.6500000E+04  0.7818608E-02  0.7223770E-01
         52   -1    0    0    0    0  0.00000000000E+00  0.00000000000E+00  0.64930732323E+04  0.65000000000E+04  0.30000000000E+03 0.  1.
        -52   -1    0    0    0    0 -0.00000000000E+00 -0.00000000000E+00 -0.64930732323E+04  0.65000000000E+04  0.30000000000E+03 0.  1.
     100001    1    1    2    0    0  0.50637967960E+04 -0.39898858560E+04 -0.81616335094E+03  0.65000000000E+04  0.15050000000E+03 0. -1.
     100001    1    1    2    0    0 -0.50637967960E+04  0.39898858560E+04  0.81616335094E+03  0.65000000000E+04  0.15050000000E+03 0.  1.
</event>
<event>
 4    1  0.5640637E-004  0.6500000E+04  0.7818608E-02  0.7223770E-01
         52   -1    0    0    0    0  0.00000000000E+00  0.00000000000E+00  0.64930732323E+04  0.65000000000E+04  0.30000000000E+03 0.  1.
        -52   -1    0    0    0    0 -0.00000000000E+00 -0.00000000000E+00 -0.64930732323E+04  0.65000000000E+04  0.30000000000E+03 0.  1.
     100001    1    1    2    0    0 -0.17907813254E+04 -0.56869883542E+01  0.62466326651E+04  0.65000000000E+04  0.15050000000E+03 0.  1.
     100001    1    1    2    0    0  0.17907813254E+04  0.56869883542E+01 -0.62466326651E+04  0.65000000000E+04  0.15050000000E+03 0.  1.
</event>
<event>
 4    1  0.5640637E-004  0.6500000E+04  0.7818608E-02  0.7223770E-01
         52   -1    0    0    0    0  0.00000000000E+00  0.00000000000E+00  0.64930732323E+04  0.65000000000E+04  0.30000000000E+03 0. -1.
        -52   -1    0    0    0    0 -0.00000000000E+00 -0.00000000000E+00 -0.64930732323E+04  0.65000000000E+04  0.30000000000E+03 0.  1.
     100001    1    1    2    0    0  0.61928383115E+04 -0.14084352554E+04 -0.13756502203E+04  0.65000000000E+04  0.15050000000E+03 0.  1.
     100001    1    1    2    0    0 -0.61928383115E+04  0.14084352554E+04  0.13756502203E+04  0.65000000000E+04  0.15050000000E+03 0. -1.
</event>
<event>
 4    1  0.5640637E-004  0.6500000E+04  0.7818608E-02  0.7223770E-01
         52   -1    0    0    0    0  0.00000000000E+00  0.00000000000E+00  0.64930732323E+04  0.65000000000E+04  0.30000000000E+03 0. -1.
        -52   -1    0    0    0    0 -0.00000000000E+00 -0.00000000000E+00 -0.64930732323E+04  0.65000000000E+04  0.30000000000E+03 0.  1.
     100001    1    1    2    0    0  0.49904218361E+03  0.18787500015E+04 -0.62006939193E+04  0.65000000000E+04  0.15050000000E+03 0.  1.
     100001    1    1    2    0    0 -0.49904218361E+03 -0.18787500015E+04  0.62006939193E+04  0.65000000000E+04  0.15050000000E+03 0. -1.
</event>
<event>
 4    1  0.5640637E-004  0.6500000E+04  0.7818608E-02  0.7223770E-01
         52   -1    0    0    0    0  0.00000000000E+00  0.00000000000E+00  0.64930732323E+04  0.65000000000E+04  0.30000000000E+03 0.  1.
        -52   -1    0    0    0    0 -0.00000000000E+00 -0.00000000000E+00 -0.64930732323E+04  0.65000000000E+04  0.30000000000E+03 0.  1.
     100001    1    1    2    0    0 -0.26554304431E+04  0.19620574152E+04  0.55969964813E+04  0.65000000000E+04  0.15050000000E+03 0.  1.
     100001    1    1    2    0    0  0.26554304431E+04 -0.19620574152E+04 -0.55969964813E+04  0.65000000000E+04  0.15050000000E+03 0.  1.
</event>
<event>
 4    1  0.5640637E-004  0.6500000E+04  0.7818608E-02  0.7223770E-01
         52   -1    0    0    0    0  0.00000000000E+00  0.00000000000E+00  0.64930732323E+04  0.65000000000E+04  0.30000000000E+03 0.  1.
        -52   -1    0    0    0    0 -0.00000000000E+00 -0.00000000000E+00 -0.64930732323E+04  0.65000000000E+04  0.30000000000E+03 0. -1.
     100001    1    1    2    0    0  0.17944685802E+04  0.57549580662E+04 -0.24264562475E+04  0.65000000000E+04  0.15050000000E+03 0.  1.
     100001    1    1    2    0    0 -0.17944685802E+04 -0.57549580662E+04  0.24264562475E+04  0.65000000000E+04  0.15050000000E+03 0. -1.
</event>
<event>
 4    1  0.5640637E-004  0.6500000E+04  0.7818608E-02  0.7223770E-01
         52   -1    0    0    0    0  0.00000000000E+00  0.00000000000E+00  0.64930732323E+04  0.65000000000E+04  0.30000000000E+03 0. -1.
        -52   -1    0    0    0    0 -0.00000000000E+00 -0.00000000000E+00 -0.64930732323E+04  0.65000000000E+04  0.30000000000E+03 0.  1.
     100001    1    1    2    0    0  0.17525282923E+04 -0.36308242426E+03  0.62469324863E+04  0.65000000000E+04  0.15050000000E+03 0. -1.
     100001    1    1    2    0    0 -0.17525282923E+04  0.36308242426E+03 -0.62469324863E+04  0.65000000000E+04  0.15050000000E+03 0.  1.
</event>
<event>
 4    1  0.5640637E-004  0.6500000E+04  0.7818608E-02  0.7223770E-01
         52   -1    0    0    0    0  0.00000000000E+00  0.00000000000E+00  0.64930732323E+04  0.65000000000E+04  0.30000000000E+03 0.  1.
        -52   -1    0    0    0    0 -0.00000000000E+00 -0.00000000000E+00 -0.64930732323E+04  0.65000000000E+04  0.30000000000E+03 0. -1.
     100001    1    1    2    0    0 -0.21444120342E+03  0.62096832568E+04  0.19029447102E+04  0.65000000000E+04  0.15050000000E+03 0.  1.
     100001    1    1    2    0    0  0.21444120342E+03 -0.62096832568E+04 -0.19029447102E+04  0.65000000000E+04  0.15050000000E+03 0. -1.
</event>
<event>
 4    1  0.5640637E-004  0.6500000E+04  0.7818608E-02  0.7223770E-01
         52   -1    0    0    0    0  0.00000000000E+00  0.00000000000E+00  0.64930732323E+04  0.65000000000E+04  0.30000000000E+03 0.  1.
        -52   -1    0    0    0    0 -0.00000000000E+00 -0.00000000000E+00 -0.64930732323E+04  0.65000000000E+04  0.30000000000E+03 0. -1.
     100001    1    1    2    0    0 -0.17785448339E+04  0.14825379934E+04  0.60717550281E+04  0.65000000000E+04  0.15050000000E+03 0.  1.
     100001    1    1    2    0    0  0.17785448339E+04 -0.14825379934E+04 -0.60717550281E+04  0.65000000000E+04  0.15050000000E+03 0. -1.
</event>
<event>
 4    1  0.5640637E-004  0.6500000E+04  0.7818608E-02  0.7223770E-01
         52   -1    0    0    0    0  0.00000000000E+00  0.00000000000E+00  0.64930732323E+04  0.65000000000E+04  0.30000000000E+03 0.  1.
        -52   -1    0    0    0    0 -0.00000000000E+00 -0.00000000000E+00 -0.64930732323E+04  0.65000000000E+04  0.30000000000E+03 0. -1.
     100001    1    1    2    0    0  0.19751794289E+03  0.31719056006E+03  0.64875054189E+04  0.65000000000E+04  0.15050000000E+03 0.  1.
     100001    1    1    2    0    0 -0.19751794289E+03 -0.31719056006E+03 -0.64875054189E+04  0.65000000000E+04  0.15050000000E+03 0. -1.
</event>
<event>
 4    1  0.5640637E-004  0.6500000E+04  0.7818608E-02  0.7223770E-01
         52   -1    0    0    0    0  0.00000000000E+00  0.00000000000E+00  0.64930732323E+04  0.65000000000E+04  0.30000000000E+03 0. -1.
        -52   -1    0    0    0    0 -0.00000000000E+00 -0.00000000000E+00 -0.64930732323E+04  0.65000000000E+04  0.30000000000E+03 0.  1.
     100001    1    1    2    0    0 -0.18829084775E+04  0.48476060229E+04 -0.38965011565E+04  0.65000000000E+04  0.15050000000E+03 0.  1.
     100001    1    1    2    0    0  0.18829084775E+04 -0.48476060229E+04  0.38965011565E+04  0.65000000000E+04  0.15050000000E+03 0. -1.
</event>
<event>
 4    1  0.5640637E-004  0.6500000E+04  0.7818608E-02  0.7223770E-01
         52   -1    0    0    0    0  0.00000000000E+00  0.00000000000E+00  0.64930732323E+04  0.65000000000E+04  0.30000000000E+03 0. -1.
        -52   -1    0    0    0    0 -0.00000000000E+00 -0.00000000000E+00 -0.64930732323E+04  0.65000000000E+04  0.30000000000E+03 0.  1.
     100001    1    1    2    0    0  0.43240148722E+04 -0.10083784128E+04 -0.47448306726E+04  0.65000000000E+04  0.15050000000E+03 0.  1.
     100001    1    1    2    0    0 -0.43240148722E+04  0.10083784128E+04  0.47448306726E+04  0.65000000000E+04  0.15050000000E+03 0. -1.
</event>
<event>
 4    1  0.5640637E-004  0.6500000E+04  0.7818608E-02  0.7223770E-01
         52   -1    0    0    0    0  0.00000000000E+00  0.00000000000E+00  0.64930732323E+04  0.65000000000E+04  0.30000000000E+03 0. -1.
        -52   -1    0    0    0    0 -0.00000000000E+00 -0.00000000000E+00 -0.64930732323E+04  0.65000000000E+04  0.30000000000E+03 0.  1.
     100001    1    1    2    0    0  0.16859453279E+04  0.30381088353E+04 -0.54913416217E+04  0.65000000000E+04  0.15050000000E+03 0.  1.
     100001    1    1    2    0    0 -0.16859453279E+04 -0.30381088353E+04  0.54913416217E+04  0.65000000000E+04  0.15050000000E+03 0. -1.
</event>
<event>
 4    1  0.5640637E-004  0.6500000E+04  0.7818608E-02  0.7223770E-01
         52   -1    0    0    0    0  0.00000000000E+00  0.00000000000E+00  0.64930732323E+04  0.65000000000E+04  0.30000000000E+03 0. -1.
        -52   -1    0    0    0    0 -0.00000000000E+00 -0.00000000000E+00 -0.64930732323E+04  0.65000000000E+04  0.30000000000E+03 0.  1.
     100001    1    1    2    0    0 -0.48360963365E+03  0.16105027493E+04  0.62769222049E+04  0.65000000000E+04  0.15050000000E+03 0. -1.
     100001    1    1    2    0    0  0.48360963365E+03 -0.16105027493E+04 -0.62769222049E+04  0.65000000000E+04  0.15050000000E+03 0.  1.
</event>
<event>
 4    1  0.5640637E-004  0.6500000E+04  0.7818608E-02  0.7223770E-01
         52   -1    0    0    0    0  0.00000000000E+00  0.00000000000E+00  0.64930732323E+04  0.65000000000E+04  0.30000000000E+03 0. -1.
        -52   -1    0    0    0    0 -0.00000000000E+00 -0.00000000000E+00 -0.64930732323E+04  0.65000000000E+04  0.30000000000E+03 0.  1.
     100001    1    1    2    0    0 -0.39618093834E+04  0.12303788412E+04 -0.50017580976E+04  0.65000000000E+04  0.15050000000E+03 0.  1.
     100001    1    1    2    0    0  0.39618093834E+04 -0.12303788412E+04  0.50017580976E+04  0.65000000000E+04  0.15050000000E+03 0. -1.
</event>
<event>
 4    1  0.5640637E-004  0.6500000E+04  0.7818608E-02  0.7223770E-01
         52   -1    0    0    0    0  0.00000000000E+00  0.00000000000E+00  0.64930732323E+04  0.65000000000E+04  0.30000000000E+03 0. -1.
        -52   -1    0    0    0    0 -0.00000000000E+00 -0.00000000000E+00 -0.64930732323E+04  0.65000000000E+04  0.30000000000E+03 0.  1.
     100001    1    1    2    0    0 -0.24380225339E+03  0.61926897549E+03 -0.64640866445E+04  0.65000000000E+04  0.15050000000E+03 0.  1.
     100001    1    1    2    0    0  0.24380225339E+03 -0.61926897549E+03  0.64640866445E+04  0.65000000000E+04  0.15050000000E+03 0. -1.
</event>
<event>
 4    1  0.5640637E-004  0.6500000E+04  0.7818608E-02  0.7223770E-01
         52   -1    0    0    0    0  0.00000000000E+00  0.00000000000E+00  0.64930732323E+04  0.65000000000E+04  0.30000000000E+03 0. -1.
        -52   -1    0    0    0    0 -0.00000000000E+00 -0.00000000000E+00 -0.64930732323E+04  0.65000000000E+04  0.30000000000E+03 0.  1.
     100001    1    1    2    0    0  0.13309579581E+04  0.21220098007E+04  0.59960799752E+04  0.65000000000E+04  0.15050000000E+03 0. -1.
     100001    1    1    2    0    0 -0.13309579581E+04 -0.21220098007E+04 -0.59960799752E+04  0.65000000000E+04  0.15050000000E+03 0.  1.
</event>
<event>
 4    1  0.5640637E-004  0.6500000E+04  0.7818608E-02  0.7223770E-01
         52   -1    0    0    0    0  0.00000000000E+00  0.00000000000E+00  0.64930732323E+04  0.65000000000E+04  0.30000000000E+03 0. -1.
        -52   -1    0    0    0    0 -0.00000000000E+00 -0.00000000000E+00 -0.64930732323E+04  0.65000000000E+04  0.30000000000E+03 0.  1.
     100001    1    1    2    0    0 -0.16429435377E+04 -0.33252970536E+04  0.53357741507E+04  0.65000000000E+04  0.15050000000E+03 0. -1.
     100001    1    1    2    0    0  0.16429435377E+04  0.33252970536E+04 -0.53357741507E+04  0.65000000000E+04  0.15050000000E+03 0.  1.
</event>
<event>
 4    1  0.5640637E-004  0.6500000E+04  0.7818608E-02  0.7223770E-01
         52   -1    0    0    0    0  0.00000000000E+00  0.00000000000E+00  0.64930732323E+04  0.65000000000E+04  0.30000000000E+03 0.  1.
        -52   -1    0    0    0    0 -0.00000000000E+00 -0.00000000000E+00 -0.64930732323E+04  0.65000000000E+04  0.30000000000E+03 0.  1.
     100001    1    1    2    0    0  0.11010170294E+04 -0.64123055848E+03  0.63721216735E+04  0.65000000000E+04  0.15050000000E+03 0.  1.
     100001    1    1    2    0    0 -0.11010170294E+04  0.64123055848E+03 -0.63721216735E+04  0.65000000000E+04  0.15050000000E+03 0.  1.
</event>
<event>
 4    1  0.5640637E-004  0.6500000E+04  0.7818608E-02  0.7223770E-01
         52   -1    0    0    0    0  0.00000000000E+00  0.00000000000E+00  0.64930732323E+04  0.65000000000E+04  0.30000000000E+03 0.  1.
        -52   -1    0    0    0    0 -0.00000000000E+00 -0.00000000000E+00 -0.64930732323E+04  0.65000000000E+04  0.30000000000E+03 0. -1.
     100001    1    1    2    0    0  0.62443925508E+04  0.15656982892E+04 -0.88515551639E+03  0.65000000000E+04  0.15050000000E+03 0.  1.
     100001    1    1    2    0    0 -0.62443925508E+04 -0.15656982892E+04  0.88515551639E+03  0.65000000000E+04  0.15050000000E+03 0. -1.
</event>
<event>
 4    1  0.5640637E-004  0.6500000E+04  0.7818608E-02  0.7223770E-01
         52   -1    0    0    0    0  0.00000000000E+00  0.00000000000E+00  0.64930732323E+04  0.65000000000E+04  0.30000000000E+03 0.  1.
        -52   -1    0    0    0    0 -0.00000000000E+00 -0.00000000000E+00 -0.64930732323E+04  0.65000000000E+04  0.30000000000E+03 0. -1.
     100001    1    1    2    0    0 -0.42274051737E+04 -0.27558067348E+04 -0.40941329348E+04  0.65000000000E+04  0.15050000000E+03 0. -1.
     100001    1    1    2    0    0  0.42274051737E+04  0.27558067348E+04  0.40941329348E+04  0.65000000000E+04  0.15050000000E+03 0.  1.
</event>
<event>
 4    1  0.5640637E-004  0.6500000E+04  0.7818608E-02  0.7223770E-01
         52   -1    0    0    0    0  0.00000000000E+00  0.00000000000E+00  0.64930732323E+04  0.65000000000E+04  0.30000000000E+03 0.  1.
        -52   -1    0    0    0    0 -0.00000000000E+00 -0.00000000000E+00 -0.64930732323E+04  0.65000000000E+04  0.30000000000E+03 0. -1.
     100001    1    1    2    0    0  0.29647507816E+04 -0.17166670843E+03 -0.57799769112E+04  0.65000000000E+04  0.15050000000E+03 0. -1.
     100001    1    1    2    0    0 -0.29647507816E+04  0.17166670843E+03  0.57799769112E+04  0.65000000000E+04  0.15050000000E+03 0.  1.
</event>
<event>
 4    1  0.5640637E-004  0.6500000E+04  0.7818608E-02  0.7223770E-01
         52   -1    0    0    0    0  0.00000000000E+00  0.00000000000E+00  0.64930732323E+04  0.65000000000E+04  0.30000000000E+03 0.  1.
        -52   -1    0    0    0    0 -0.00000000000E+00 -0.00000000000E+00 -0.64930732323E+04  0.65000000000E+04  0.30000000000E+03 0. -1.
     100001    1    1    2    0    0 -0.46243692135E+03  0.69215034581E+02  0.64814127413E+04  0.65000000000E+04  0.15050000000E+03 0.  1.
     100001    1    1    2    0    0  0.46243692135E+03 -0.69215034581E+02 -0.64814127413E+04  0.65000000000E+04  0.15050000000E+03 0. -1.
</event>
<event>
 4    1  0.5640637E-004  0.6500000E+04  0.7818608E-02  0.7223770E-01
         52   -1    0    0    0    0  0.00000000000E+00  0.00000000000E+00  0.64930732323E+04  0.65000000000E+04  0.30000000000E+03 0. -1.
        -52   -1    0    0    0    0 -0.00000000000E+00 -0.00000000000E+00 -0.64930732323E+04  0.65000000000E+04  0.30000000000E+03 0.  1.
     100001    1    1    2    0    0 -0.37312765662E+03 -0.50700037117E+03  0.64676948077E+04  0.65000000000E+04  0.15050000000E+03 0. -1.
     100001    1    1    2    0    0  0.37312765662E+03  0.50700037117E+03 -0.64676948077E+04  0.65000000000E+04  0.15050000000E+03 0.  1.
</event>
<event>
 4    1  0.5640637E-004  0.6500000E+04  0.7818608E-02  0.7223770E-01
         52   -1    0    0    0    0  0.00000000000E+00  0.00000000000E+00  0.64930732323E+04  0.65000000000E+04  0.30000000000E+03 0.  1.
        -52   -1    0    0    0    0 -0.00000000000E+00 -0.00000000000E+00 -0.64930732323E+04  0.65000000000E+04  0.30000000000E+03 0. -1.
     100001    1    1    2    0    0 -0.12893721648E+04  0.57254865839E+02  0.63687982423E+04  0.65000000000E+04  0.15050000000E+03 0.  1.
     100001    1    1    2    0    0  0.12893721648E+04 -0.57254865839E+02 -0.63687982423E+04  0.65000000000E+04  0.15050000000E+03 0. -1.
</event>
<event>
 4    1  0.5640637E-004  0.6500000E+04  0.7818608E-02  0.7223770E-01
         52   -1    0    0    0    0  0.00000000000E+00  0.00000000000E+00  0.64930732323E+04  0.65000000000E+04  0.30000000000E+03 0. -1.
        -52   -1    0    0    0    0 -0.00000000000E+00 -0.00000000000E+00 -0.64930732323E+04  0.65000000000E+04  0.30000000000E+03 0.  1.
     100001    1    1    2    0    0  0.15580181434E+03  0.99425198478E+03  0.64198550245E+04  0.65000000000E+04  0.15050000000E+03 0. -1.
     100001    1    1    2    0    0 -0.15580181434E+03 -0.99425198478E+03 -0.64198550245E+04  0.65000000000E+04  0.15050000000E+03 0.  1.
</event>
<event>
 4    1  0.5640637E-004  0.6500000E+04  0.7818608E-02  0.7223770E-01
         52   -1    0    0    0    0  0.00000000000E+00  0.00000000000E+00  0.64930732323E+04  0.65000000000E+04  0.30000000000E+03 0. -1.
        -52   -1    0    0    0    0 -0.00000000000E+00 -0.00000000000E+00 -0.64930732323E+04  0.65000000000E+04  0.30000000000E+03 0.  1.
     100001    1    1    2    0    0 -0.59782603671E+03  0.51307956014E+03 -0.64503258169E+04  0.65000000000E+04  0.15050000000E+03 0.  1.
     100001    1    1    2    0    0  0.59782603671E+03 -0.51307956014E+03  0.64503258169E+04  0.65000000000E+04  0.15050000000E+03 0. -1.
</event>
<event>
 4    1  0.5640637E-004  0.6500000E+04  0.7818608E-02  0.7223770E-01
         52   -1    0    0    0    0  0.00000000000E+00  0.00000000000E+00  0.64930732323E+04  0.65000000000E+04  0.30000000000E+03 0.  1.
        -52   -1    0    0    0    0 -0.00000000000E+00 -0.00000000000E+00 -0.64930732323E+04  0.65000000000E+04  0.30000000000E+03 0.  1.
     100001    1    1    2    0    0 -0.34403216818E+03 -0.30474797363E+03  0.64819842865E+04  0.65000000000E+04  0.15050000000E+03 0.  1.
     100001    1    1    2    0    0  0.34403216818E+03  0.30474797363E+03 -0.64819842865E+04  0.65000000000E+04  0.15050000000E+03 0.  1.
</event>
<event>
 4    1  0.5640637E-004  0.6500000E+04  0.7818608E-02  0.7223770E-01
         52   -1    0    0    0    0  0.00000000000E+00  0.00000000000E+00  0.64930732323E+04  0.65000000000E+04  0.30000000000E+03 0.  1.
        -52   -1    0    0    0    0 -0.00000000000E+00 -0.00000000000E+00 -0.64930732323E+04  0.65000000000E+04  0.30000000000E+03 0.  1.
     100001    1    1    2    0    0 -0.40595081699E+03 -0.11736884390E+04  0.63784801585E+04  0.65000000000E+04  0.15050000000E+03 0.  1.
     100001    1    1    2    0    0  0.40595081699E+03  0.11736884390E+04 -0.63784801585E+04  0.65000000000E+04  0.15050000000E+03 0.  1.
</event>
<event>
 4    1  0.5640637E-004  0.6500000E+04  0.7818608E-02  0.7223770E-01
         52   -1    0    0    0    0  0.00000000000E+00  0.00000000000E+00  0.64930732323E+04  0.65000000000E+04  0.30000000000E+03 0.  1.
        -52   -1    0    0    0    0 -0.00000000000E+00 -0.00000000000E+00 -0.64930732323E+04  0.65000000000E+04  0.30000000000E+03 0. -1.
     100001    1    1    2    0    0 -0.86489589994E+03  0.24612684998E+04  0.59515932492E+04  0.65000000000E+04  0.15050000000E+03 0.  1.
     100001    1    1    2    0    0  0.86489589994E+03 -0.24612684998E+04 -0.59515932492E+04  0.65000000000E+04  0.15050000000E+03 0. -1.
</event>
<event>
 4    1  0.5640637E-004  0.6500000E+04  0.7818608E-02  0.7223770E-01
         52   -1    0    0    0    0  0.00000000000E+00  0.00000000000E+00  0.64930732323E+04  0.65000000000E+04  0.30000000000E+03 0. -1.
        -52   -1    0    0    0    0 -0.00000000000E+00 -0.00000000000E+00 -0.64930732323E+04  0.65000000000E+04  0.30000000000E+03 0.  1.
     100001    1    1    2    0    0  0.18961923249E+03 -0.13325597723E+03  0.64941232773E+04  0.65000000000E+04  0.15050000000E+03 0. -1.
     100001    1    1    2    0    0 -0.18961923249E+03  0.13325597723E+03 -0.64941232773E+04  0.65000000000E+04  0.15050000000E+03 0.  1.
</event>
<event>
 4    1  0.5640637E-004  0.6500000E+04  0.7818608E-02  0.7223770E-01
         52   -1    0    0    0    0  0.00000000000E+00  0.00000000000E+00  0.64930732323E+04  0.65000000000E+04  0.30000000000E+03 0.  1.
        -52   -1    0    0    0    0 -0.00000000000E+00 -0.00000000000E+00 -0.64930732323E+04  0.65000000000E+04  0.30000000000E+03 0. -1.
     100001    1    1    2    0    0  0.41978717349E+03 -0.20666730527E+03 -0.64813900595E+04  0.65000000000E+04  0.15050000000E+03 0. -1.
     100001    1    1    2    0    0 -0.41978717349E+03  0.20666730527E+03  0.64813900595E+04  0.65000000000E+04  0.15050000000E+03 0.  1.
</event>
<event>
 4    1  0.5640637E-004  0.6500000E+04  0.7818608E-02  0.7223770E-01
         52   -1    0    0    0    0  0.00000000000E+00  0.00000000000E+00  0.64930732323E+04  0.65000000000E+04  0.30000000000E+03 0.  1.
        -52   -1    0    0    0    0 -0.00000000000E+00 -0.00000000000E+00 -0.64930732323E+04  0.65000000000E+04  0.30000000000E+03 0. -1.
     100001    1    1    2    0    0  0.92541534291E+03  0.21974184333E+03  0.64282711296E+04  0.65000000000E+04  0.15050000000E+03 0.  1.
     100001    1    1    2    0    0 -0.92541534291E+03 -0.21974184333E+03 -0.64282711296E+04  0.65000000000E+04  0.15050000000E+03 0. -1.
</event>
<event>
 4    1  0.5640637E-004  0.6500000E+04  0.7818608E-02  0.7223770E-01
         52   -1    0    0    0    0  0.00000000000E+00  0.00000000000E+00  0.64930732323E+04  0.65000000000E+04  0.30000000000E+03 0. -1.
        -52   -1    0    0    0    0 -0.00000000000E+00 -0.00000000000E+00 -0.64930732323E+04  0.65000000000E+04  0.30000000000E+03 0. -1.
     100001    1    1    2    0    0 -0.36146000733E+03  0.27242150733E+03  0.64824750625E+04  0.65000000000E+04  0.15050000000E+03 0. -1.
     100001    1    1    2    0    0  0.36146000733E+03 -0.27242150733E+03 -0.64824750625E+04  0.65000000000E+04  0.15050000000E+03 0. -1.
</event>
<event>
 4    1  0.5640637E-004  0.6500000E+04  0.7818608E-02  0.7223770E-01
         52   -1    0    0    0    0  0.00000000000E+00  0.00000000000E+00  0.64930732323E+04  0.65000000000E+04  0.30000000000E+03 0.  1.
        -52   -1    0    0    0    0 -0.00000000000E+00 -0.00000000000E+00 -0.64930732323E+04  0.65000000000E+04  0.30000000000E+03 0. -1.
     100001    1    1    2    0    0  0.38831005952E+04  0.21169568543E+04  0.47610264854E+04  0.65000000000E+04  0.15050000000E+03 0.  1.
     100001    1    1    2    0    0 -0.38831005952E+04 -0.21169568543E+04 -0.47610264854E+04  0.65000000000E+04  0.15050000000E+03 0. -1.
</event>
<event>
 4    1  0.5640637E-004  0.6500000E+04  0.7818608E-02  0.7223770E-01
         52   -1    0    0    0    0  0.00000000000E+00  0.00000000000E+00  0.64930732323E+04  0.65000000000E+04  0.30000000000E+03 0. -1.
        -52   -1    0    0    0    0 -0.00000000000E+00 -0.00000000000E+00 -0.64930732323E+04  0.65000000000E+04  0.30000000000E+03 0.  1.
     100001    1    1    2    0    0 -0.19575349127E+04  0.10640714104E+04 -0.61043557276E+04  0.65000000000E+04  0.15050000000E+03 0.  1.
     100001    1    1    2    0    0  0.19575349127E+04 -0.10640714104E+04  0.61043557276E+04  0.65000000000E+04  0.15050000000E+03 0. -1.
</event>
<event>
 4    1  0.5640637E-004  0.6500000E+04  0.7818608E-02  0.7223770E-01
         52   -1    0    0    0    0  0.00000000000E+00  0.00000000000E+00  0.64930732323E+04  0.65000000000E+04  0.30000000000E+03 0.  1.
        -52   -1    0    0    0    0 -0.00000000000E+00 -0.00000000000E+00 -0.64930732323E+04  0.65000000000E+04  0.30000000000E+03 0. -1.
     100001    1    1    2    0    0 -0.20450440801E+04  0.21894965282E+04  0.57663896342E+04  0.65000000000E+04  0.15050000000E+03 0.  1.
     100001    1    1    2    0    0  0.20450440801E+04 -0.21894965282E+04 -0.57663896342E+04  0.65000000000E+04  0.15050000000E+03 0. -1.
</event>
<event>
 4    1  0.5640637E-004  0.6500000E+04  0.7818608E-02  0.7223770E-01
         52   -1    0    0    0    0  0.00000000000E+00  0.00000000000E+00  0.64930732323E+04  0.65000000000E+04  0.30000000000E+03 0. -1.
        -52   -1    0    0    0    0 -0.00000000000E+00 -0.00000000000E+00 -0.64930732323E+04  0.65000000000E+04  0.30000000000E+03 0.  1.
     100001    1    1    2    0    0  0.38377181558E+04  0.39588176776E+04  0.34390451731E+04  0.65000000000E+04  0.15050000000E+03 0. -1.
     100001    1    1    2    0    0 -0.38377181558E+04 -0.39588176776E+04 -0.34390451731E+04  0.65000000000E+04  0.15050000000E+03 0.  1.
</event>
<event>
 4    1  0.5640637E-004  0.6500000E+04  0.7818608E-02  0.7223770E-01
         52   -1    0    0    0    0  0.00000000000E+00  0.00000000000E+00  0.64930732323E+04  0.65000000000E+04  0.30000000000E+03 0. -1.
        -52   -1    0    0    0    0 -0.00000000000E+00 -0.00000000000E+00 -0.64930732323E+04  0.65000000000E+04  0.30000000000E+03 0. -1.
     100001    1    1    2    0    0  0.68625894423E+02  0.12808013341E+02 -0.64978824390E+04  0.65000000000E+04  0.15050000000E+03 0. -1.
     100001    1    1    2    0    0 -0.68625894423E+02 -0.12808013341E+02  0.64978824390E+04  0.65000000000E+04  0.15050000000E+03 0. -1.
</event>
<event>
 4    1  0.5640637E-004  0.6500000E+04  0.7818608E-02  0.7223770E-01
         52   -1    0    0    0    0  0.00000000000E+00  0.00000000000E+00  0.64930732323E+04  0.65000000000E+04  0.30000000000E+03 0.  1.
        -52   -1    0    0    0    0 -0.00000000000E+00 -0.00000000000E+00 -0.64930732323E+04  0.65000000000E+04  0.30000000000E+03 0.  1.
     100001    1    1    2    0    0  0.28462064390E+03 -0.11938953687E+02  0.64920103435E+04  0.65000000000E+04  0.15050000000E+03 0.  1.
     100001    1    1    2    0    0 -0.28462064390E+03  0.11938953687E+02 -0.64920103435E+04  0.65000000000E+04  0.15050000000E+03 0.  1.
</event>
<event>
 4    1  0.5640637E-004  0.6500000E+04  0.7818608E-02  0.7223770E-01
         52   -1    0    0    0    0  0.00000000000E+00  0.00000000000E+00  0.64930732323E+04  0.65000000000E+04  0.30000000000E+03 0. -1.
        -52   -1    0    0    0    0 -0.00000000000E+00 -0.00000000000E+00 -0.64930732323E+04  0.65000000000E+04  0.30000000000E+03 0.  1.
     100001    1    1    2    0    0 -0.26901775528E+04  0.27481807397E+04 -0.52381100701E+04  0.65000000000E+04  0.15050000000E+03 0.  1.
     100001    1    1    2    0    0  0.26901775528E+04 -0.27481807397E+04  0.52381100701E+04  0.65000000000E+04  0.15050000000E+03 0. -1.
</event>
<event>
 4    1  0.5640637E-004  0.6500000E+04  0.7818608E-02  0.7223770E-01
         52   -1    0    0    0    0  0.00000000000E+00  0.00000000000E+00  0.64930732323E+04  0.65000000000E+04  0.30000000000E+03 0. -1.
        -52   -1    0    0    0    0 -0.00000000000E+00 -0.00000000000E+00 -0.64930732323E+04  0.65000000000E+04  0.30000000000E+03 0.  1.
     100001    1    1    2    0    0 -0.10586408907E+04  0.14943303136E+04  0.62348701774E+04  0.65000000000E+04  0.15050000000E+03 0. -1.
     100001    1    1    2    0    0  0.10586408907E+04 -0.14943303136E+04 -0.62348701774E+04  0.65000000000E+04  0.15050000000E+03 0.  1.
</event>
<event>
 4    1  0.5640637E-004  0.6500000E+04  0.7818608E-02  0.7223770E-01
         52   -1    0    0    0    0  0.00000000000E+00  0.00000000000E+00  0.64930732323E+04  0.65000000000E+04  0.30000000000E+03 0. -1.
        -52   -1    0    0    0    0 -0.00000000000E+00 -0.00000000000E+00 -0.64930732323E+04  0.65000000000E+04  0.30000000000E+03 0.  1.
     100001    1    1    2    0    0 -0.10561191853E+03 -0.65159086967E+03  0.64646442448E+04  0.65000000000E+04  0.15050000000E+03 0. -1.
     100001    1    1    2    0    0  0.10561191853E+03  0.65159086967E+03 -0.64646442448E+04  0.65000000000E+04  0.15050000000E+03 0.  1.
</event>
<event>
 4    1  0.5640637E-004  0.6500000E+04  0.7818608E-02  0.7223770E-01
         52   -1    0    0    0    0  0.00000000000E+00  0.00000000000E+00  0.64930732323E+04  0.65000000000E+04  0.30000000000E+03 0.  1.
        -52   -1    0    0    0    0 -0.00000000000E+00 -0.00000000000E+00 -0.64930732323E+04  0.65000000000E+04  0.30000000000E+03 0. -1.
     100001    1    1    2    0    0 -0.19252004946E+04  0.92810014931E+03  0.61367404148E+04  0.65000000000E+04  0.15050000000E+03 0.  1.
     100001    1    1    2    0    0  0.19252004946E+04 -0.92810014931E+03 -0.61367404148E+04  0.65000000000E+04  0.15050000000E+03 0. -1.
</event>
<event>
 4    1  0.5640637E-004  0.6500000E+04  0.7818608E-02  0.7223770E-01
         52   -1    0    0    0    0  0.00000000000E+00  0.00000000000E+00  0.64930732323E+04  0.65000000000E+04  0.30000000000E+03 0.  1.
        -52   -1    0    0    0    0 -0.00000000000E+00 -0.00000000000E+00 -0.64930732323E+04  0.65000000000E+04  0.30000000000E+03 0. -1.
     100001    1    1    2    0    0 -0.48354145252E+03 -0.52719700721E+03 -0.64587615476E+04  0.65000000000E+04  0.15050000000E+03 0. -1.
     100001    1    1    2    0    0  0.48354145252E+03  0.52719700721E+03  0.64587615476E+04  0.65000000000E+04  0.15050000000E+03 0.  1.
</event>
<event>
 4    1  0.5640637E-004  0.6500000E+04  0.7818608E-02  0.7223770E-01
         52   -1    0    0    0    0  0.00000000000E+00  0.00000000000E+00  0.64930732323E+04  0.65000000000E+04  0.30000000000E+03 0. -1.
        -52   -1    0    0    0    0 -0.00000000000E+00 -0.00000000000E+00 -0.64930732323E+04  0.65000000000E+04  0.30000000000E+03 0.  1.
     100001    1    1    2    0    0 -0.10293772280E+04 -0.29144793958E+04 -0.57160775120E+04  0.65000000000E+04  0.15050000000E+03 0.  1.
     100001    1    1    2    0    0  0.10293772280E+04  0.29144793958E+04  0.57160775120E+04  0.65000000000E+04  0.15050000000E+03 0. -1.
</event>
<event>
 4    1  0.5640637E-004  0.6500000E+04  0.7818608E-02  0.7223770E-01
         52   -1    0    0    0    0  0.00000000000E+00  0.00000000000E+00  0.64930732323E+04  0.65000000000E+04  0.30000000000E+03 0. -1.
        -52   -1    0    0    0    0 -0.00000000000E+00 -0.00000000000E+00 -0.64930732323E+04  0.65000000000E+04  0.30000000000E+03 0.  1.
     100001    1    1    2    0    0 -0.38095090201E+03  0.30284606192E+03 -0.64800085203E+04  0.65000000000E+04  0.15050000000E+03 0.  1.
     100001    1    1    2    0    0  0.38095090201E+03 -0.30284606192E+03  0.64800085203E+04  0.65000000000E+04  0.15050000000E+03 0. -1.
</event>
<event>
 4    1  0.5640637E-004  0.6500000E+04  0.7818608E-02  0.7223770E-01
         52   -1    0    0    0    0  0.00000000000E+00  0.00000000000E+00  0.64930732323E+04  0.65000000000E+04  0.30000000000E+03 0. -1.
        -52   -1    0    0    0    0 -0.00000000000E+00 -0.00000000000E+00 -0.64930732323E+04  0.65000000000E+04  0.30000000000E+03 0.  1.
     100001    1    1    2    0    0  0.13152139927E+04  0.35503475342E+03 -0.63538580585E+04  0.65000000000E+04  0.15050000000E+03 0.  1.
     100001    1    1    2    0    0 -0.13152139927E+04 -0.35503475342E+03  0.63538580585E+04  0.65000000000E+04  0.15050000000E+03 0. -1.
</event>
<event>
 4    1  0.5640637E-004  0.6500000E+04  0.7818608E-02  0.7223770E-01
         52   -1    0    0    0    0  0.00000000000E+00  0.00000000000E+00  0.64930732323E+04  0.65000000000E+04  0.30000000000E+03 0. -1.
        -52   -1    0    0    0    0 -0.00000000000E+00 -0.00000000000E+00 -0.64930732323E+04  0.65000000000E+04  0.30000000000E+03 0.  1.
     100001    1    1    2    0    0 -0.13620651803E+04  0.12962095662E+04  0.62202868869E+04  0.65000000000E+04  0.15050000000E+03 0. -1.
     100001    1    1    2    0    0  0.13620651803E+04 -0.12962095662E+04 -0.62202868869E+04  0.65000000000E+04  0.15050000000E+03 0.  1.
</event>
<event>
 4    1  0.5640637E-004  0.6500000E+04  0.7818608E-02  0.7223770E-01
         52   -1    0    0    0    0  0.00000000000E+00  0.00000000000E+00  0.64930732323E+04  0.65000000000E+04  0.30000000000E+03 0. -1.
        -52   -1    0    0    0    0 -0.00000000000E+00 -0.00000000000E+00 -0.64930732323E+04  0.65000000000E+04  0.30000000000E+03 0. -1.
     100001    1    1    2    0    0 -0.50629125323E+03 -0.90419127157E+02  0.64778733623E+04  0.65000000000E+04  0.15050000000E+03 0. -1.
     100001    1    1    2    0    0  0.50629125323E+03  0.90419127157E+02 -0.64778733623E+04  0.65000000000E+04  0.15050000000E+03 0. -1.
</event>
<event>
 4    1  0.5640637E-004  0.6500000E+04  0.7818608E-02  0.7223770E-01
         52   -1    0    0    0    0  0.00000000000E+00  0.00000000000E+00  0.64930732323E+04  0.65000000000E+04  0.30000000000E+03 0.  1.
        -52   -1    0    0    0    0 -0.00000000000E+00 -0.00000000000E+00 -0.64930732323E+04  0.65000000000E+04  0.30000000000E+03 0. -1.
     100001    1    1    2    0    0 -0.26011411187E+04 -0.25728442092E+04  0.53704643473E+04  0.65000000000E+04  0.15050000000E+03 0.  1.
     100001    1    1    2    0    0  0.26011411187E+04  0.25728442092E+04 -0.53704643473E+04  0.65000000000E+04  0.15050000000E+03 0. -1.
</event>
<event>
 4    1  0.5640637E-004  0.6500000E+04  0.7818608E-02  0.7223770E-01
         52   -1    0    0    0    0  0.00000000000E+00  0.00000000000E+00  0.64930732323E+04  0.65000000000E+04  0.30000000000E+03 0. -1.
        -52   -1    0    0    0    0 -0.00000000000E+00 -0.00000000000E+00 -0.64930732323E+04  0.65000000000E+04  0.30000000000E+03 0.  1.
     100001    1    1    2    0    0 -0.51202244264E+03 -0.23104132169E+04  0.60520387916E+04  0.65000000000E+04  0.15050000000E+03 0. -1.
     100001    1    1    2    0    0  0.51202244264E+03  0.23104132169E+04 -0.60520387916E+04  0.65000000000E+04  0.15050000000E+03 0.  1.
</event>
<event>
 4    1  0.5640637E-004  0.6500000E+04  0.7818608E-02  0.7223770E-01
         52   -1    0    0    0    0  0.00000000000E+00  0.00000000000E+00  0.64930732323E+04  0.65000000000E+04  0.30000000000E+03 0. -1.
        -52   -1    0    0    0    0 -0.00000000000E+00 -0.00000000000E+00 -0.64930732323E+04  0.65000000000E+04  0.30000000000E+03 0.  1.
     100001    1    1    2    0    0 -0.75772550798E+03  0.86949118020E+03 -0.63950908431E+04  0.65000000000E+04  0.15050000000E+03 0.  1.
     100001    1    1    2    0    0  0.75772550798E+03 -0.86949118020E+03  0.63950908431E+04  0.65000000000E+04  0.15050000000E+03 0. -1.
</event>
<event>
 4    1  0.5640637E-004  0.6500000E+04  0.7818608E-02  0.7223770E-01
         52   -1    0    0    0    0  0.00000000000E+00  0.00000000000E+00  0.64930732323E+04  0.65000000000E+04  0.30000000000E+03 0. -1.
        -52   -1    0    0    0    0 -0.00000000000E+00 -0.00000000000E+00 -0.64930732323E+04  0.65000000000E+04  0.30000000000E+03 0.  1.
     100001    1    1    2    0    0  0.88813878848E+03 -0.11950769788E+04  0.63253735271E+04  0.65000000000E+04  0.15050000000E+03 0. -1.
     100001    1    1    2    0    0 -0.88813878848E+03  0.11950769788E+04 -0.63253735271E+04  0.65000000000E+04  0.15050000000E+03 0.  1.
</event>
<event>
 4    1  0.5640637E-004  0.6500000E+04  0.7818608E-02  0.7223770E-01
         52   -1    0    0    0    0  0.00000000000E+00  0.00000000000E+00  0.64930732323E+04  0.65000000000E+04  0.30000000000E+03 0.  1.
        -52   -1    0    0    0    0 -0.00000000000E+00 -0.00000000000E+00 -0.64930732323E+04  0.65000000000E+04  0.30000000000E+03 0. -1.
     100001    1    1    2    0    0 -0.29555621573E+03  0.16266444437E+04 -0.62844271121E+04  0.65000000000E+04  0.15050000000E+03 0. -1.
     100001    1    1    2    0    0  0.29555621573E+03 -0.16266444437E+04  0.62844271121E+04  0.65000000000E+04  0.15050000000E+03 0.  1.
</event>
<event>
 4    1  0.5640637E-004  0.6500000E+04  0.7818608E-02  0.7223770E-01
         52   -1    0    0    0    0  0.00000000000E+00  0.00000000000E+00  0.64930732323E+04  0.65000000000E+04  0.30000000000E+03 0.  1.
        -52   -1    0    0    0    0 -0.00000000000E+00 -0.00000000000E+00 -0.64930732323E+04  0.65000000000E+04  0.30000000000E+03 0. -1.
     100001    1    1    2    0    0  0.23786045216E+03 -0.24649851932E+04  0.60078798384E+04  0.65000000000E+04  0.15050000000E+03 0.  1.
     100001    1    1    2    0    0 -0.23786045216E+03  0.24649851932E+04 -0.60078798384E+04  0.65000000000E+04  0.15050000000E+03 0. -1.
</event>
<event>
 4    1  0.5640637E-004  0.6500000E+04  0.7818608E-02  0.7223770E-01
         52   -1    0    0    0    0  0.00000000000E+00  0.00000000000E+00  0.64930732323E+04  0.65000000000E+04  0.30000000000E+03 0. -1.
        -52   -1    0    0    0    0 -0.00000000000E+00 -0.00000000000E+00 -0.64930732323E+04  0.65000000000E+04  0.30000000000E+03 0.  1.
     100001    1    1    2    0    0 -0.23741395292E+04  0.12198222265E+04 -0.59247653947E+04  0.65000000000E+04  0.15050000000E+03 0.  1.
     100001    1    1    2    0    0  0.23741395292E+04 -0.12198222265E+04  0.59247653947E+04  0.65000000000E+04  0.15050000000E+03 0. -1.
</event>
<event>
 4    1  0.5640637E-004  0.6500000E+04  0.7818608E-02  0.7223770E-01
         52   -1    0    0    0    0  0.00000000000E+00  0.00000000000E+00  0.64930732323E+04  0.65000000000E+04  0.30000000000E+03 0. -1.
        -52   -1    0    0    0    0 -0.00000000000E+00 -0.00000000000E+00 -0.64930732323E+04  0.65000000000E+04  0.30000000000E+03 0.  1.
     100001    1    1    2    0    0  0.53882960180E+04 -0.27397915988E+04  0.23847762511E+04  0.65000000000E+04  0.15050000000E+03 0. -1.
     100001    1    1    2    0    0 -0.53882960180E+04  0.27397915988E+04 -0.23847762511E+04  0.65000000000E+04  0.15050000000E+03 0.  1.
</event>
<event>
 4    1  0.5640637E-004  0.6500000E+04  0.7818608E-02  0.7223770E-01
         52   -1    0    0    0    0  0.00000000000E+00  0.00000000000E+00  0.64930732323E+04  0.65000000000E+04  0.30000000000E+03 0.  1.
        -52   -1    0    0    0    0 -0.00000000000E+00 -0.00000000000E+00 -0.64930732323E+04  0.65000000000E+04  0.30000000000E+03 0.  1.
     100001    1    1    2    0    0  0.58688410425E+03  0.44884234130E+03  0.64561178235E+04  0.65000000000E+04  0.15050000000E+03 0.  1.
     100001    1    1    2    0    0 -0.58688410425E+03 -0.44884234130E+03 -0.64561178235E+04  0.65000000000E+04  0.15050000000E+03 0.  1.
</event>
<event>
 4    1  0.5640637E-004  0.6500000E+04  0.7818608E-02  0.7223770E-01
         52   -1    0    0    0    0  0.00000000000E+00  0.00000000000E+00  0.64930732323E+04  0.65000000000E+04  0.30000000000E+03 0. -1.
        -52   -1    0    0    0    0 -0.00000000000E+00 -0.00000000000E+00 -0.64930732323E+04  0.65000000000E+04  0.30000000000E+03 0.  1.
     100001    1    1    2    0    0  0.35838431238E+04  0.12472829673E+04  0.52751970023E+04  0.65000000000E+04  0.15050000000E+03 0. -1.
     100001    1    1    2    0    0 -0.35838431238E+04 -0.12472829673E+04 -0.52751970023E+04  0.65000000000E+04  0.15050000000E+03 0.  1.
</event>
<event>
 4    1  0.5640637E-004  0.6500000E+04  0.7818608E-02  0.7223770E-01
         52   -1    0    0    0    0  0.00000000000E+00  0.00000000000E+00  0.64930732323E+04  0.65000000000E+04  0.30000000000E+03 0.  1.
        -52   -1    0    0    0    0 -0.00000000000E+00 -0.00000000000E+00 -0.64930732323E+04  0.65000000000E+04  0.30000000000E+03 0. -1.
     100001    1    1    2    0    0 -0.17895980883E+04 -0.19614292335E+04 -0.59310609333E+04  0.65000000000E+04  0.15050000000E+03 0. -1.
     100001    1    1    2    0    0  0.17895980883E+04  0.19614292335E+04  0.59310609333E+04  0.65000000000E+04  0.15050000000E+03 0.  1.
</event>
<event>
 4    1  0.5640637E-004  0.6500000E+04  0.7818608E-02  0.7223770E-01
         52   -1    0    0    0    0  0.00000000000E+00  0.00000000000E+00  0.64930732323E+04  0.65000000000E+04  0.30000000000E+03 0. -1.
        -52   -1    0    0    0    0 -0.00000000000E+00 -0.00000000000E+00 -0.64930732323E+04  0.65000000000E+04  0.30000000000E+03 0.  1.
     100001    1    1    2    0    0 -0.19294040934E+04 -0.35701803818E+03 -0.61949404932E+04  0.65000000000E+04  0.15050000000E+03 0.  1.
     100001    1    1    2    0    0  0.19294040934E+04  0.35701803818E+03  0.61949404932E+04  0.65000000000E+04  0.15050000000E+03 0. -1.
</event>
<event>
 4    1  0.5640637E-004  0.6500000E+04  0.7818608E-02  0.7223770E-01
         52   -1    0    0    0    0  0.00000000000E+00  0.00000000000E+00  0.64930732323E+04  0.65000000000E+04  0.30000000000E+03 0.  1.
        -52   -1    0    0    0    0 -0.00000000000E+00 -0.00000000000E+00 -0.64930732323E+04  0.65000000000E+04  0.30000000000E+03 0. -1.
     100001    1    1    2    0    0 -0.41741793487E+03 -0.38333516680E+04  0.52305379271E+04  0.65000000000E+04  0.15050000000E+03 0.  1.
     100001    1    1    2    0    0  0.41741793487E+03  0.38333516680E+04 -0.52305379271E+04  0.65000000000E+04  0.15050000000E+03 0. -1.
</event>
<event>
 4    1  0.5640637E-004  0.6500000E+04  0.7818608E-02  0.7223770E-01
         52   -1    0    0    0    0  0.00000000000E+00  0.00000000000E+00  0.64930732323E+04  0.65000000000E+04  0.30000000000E+03 0.  1.
        -52   -1    0    0    0    0 -0.00000000000E+00 -0.00000000000E+00 -0.64930732323E+04  0.65000000000E+04  0.30000000000E+03 0. -1.
     100001    1    1    2    0    0  0.71359447589E+03  0.14850911215E+03  0.64572500120E+04  0.65000000000E+04  0.15050000000E+03 0.  1.
     100001    1    1    2    0    0 -0.71359447589E+03 -0.14850911215E+03 -0.64572500120E+04  0.65000000000E+04  0.15050000000E+03 0. -1.
</event>
<event>
 4    1  0.5640637E-004  0.6500000E+04  0.7818608E-02  0.7223770E-01
         52   -1    0    0    0    0  0.00000000000E+00  0.00000000000E+00  0.64930732323E+04  0.65000000000E+04  0.30000000000E+03 0. -1.
        -52   -1    0    0    0    0 -0.00000000000E+00 -0.00000000000E+00 -0.64930732323E+04  0.65000000000E+04  0.30000000000E+03 0.  1.
     100001    1    1    2    0    0 -0.19840143831E+04 -0.31263157225E+03  0.61800726677E+04  0.65000000000E+04  0.15050000000E+03 0. -1.
     100001    1    1    2    0    0  0.19840143831E+04  0.31263157225E+03 -0.61800726677E+04  0.65000000000E+04  0.15050000000E+03 0.  1.
</event>
<event>
 4    1  0.5640637E-004  0.6500000E+04  0.7818608E-02  0.7223770E-01
         52   -1    0    0    0    0  0.00000000000E+00  0.00000000000E+00  0.64930732323E+04  0.65000000000E+04  0.30000000000E+03 0. -1.
        -52   -1    0    0    0    0 -0.00000000000E+00 -0.00000000000E+00 -0.64930732323E+04  0.65000000000E+04  0.30000000000E+03 0.  1.
     100001    1    1    2    0    0  0.29933458639E+04  0.20777839870E+03 -0.57640314387E+04  0.65000000000E+04  0.15050000000E+03 0.  1.
     100001    1    1    2    0    0 -0.29933458639E+04 -0.20777839870E+03  0.57640314387E+04  0.65000000000E+04  0.15050000000E+03 0. -1.
</event>
<event>
 4    1  0.5640637E-004  0.6500000E+04  0.7818608E-02  0.7223770E-01
         52   -1    0    0    0    0  0.00000000000E+00  0.00000000000E+00  0.64930732323E+04  0.65000000000E+04  0.30000000000E+03 0. -1.
        -52   -1    0    0    0    0 -0.00000000000E+00 -0.00000000000E+00 -0.64930732323E+04  0.65000000000E+04  0.30000000000E+03 0.  1.
     100001    1    1    2    0    0  0.34434631934E+04  0.31598537551E+03 -0.55018237184E+04  0.65000000000E+04  0.15050000000E+03 0.  1.
     100001    1    1    2    0    0 -0.34434631934E+04 -0.31598537551E+03  0.55018237184E+04  0.65000000000E+04  0.15050000000E+03 0. -1.
</event>
<event>
 4    1  0.5640637E-004  0.6500000E+04  0.7818608E-02  0.7223770E-01
         52   -1    0    0    0    0  0.00000000000E+00  0.00000000000E+00  0.64930732323E+04  0.65000000000E+04  0.30000000000E+03 0.  1.
        -52   -1    0    0    0    0 -0.00000000000E+00 -0.00000000000E+00 -0.64930732323E+04  0.65000000000E+04  0.30000000000E+03 0.  1.
     100001    1    1    2    0    0  0.15206131809E+03  0.12202954616E+03  0.64953318541E+04  0.65000000000E+04  0.15050000000E+03 0.  1.
     100001    1    1    2    0    0 -0.15206131809E+03 -0.12202954616E+03 -0.64953318541E+04  0.65000000000E+04  0.15050000000E+03 0.  1.
</event>
<event>
 4    1  0.5640637E-004  0.6500000E+04  0.7818608E-02  0.7223770E-01
         52   -1    0    0    0    0  0.00000000000E+00  0.00000000000E+00  0.64930732323E+04  0.65000000000E+04  0.30000000000E+03 0.  1.
        -52   -1    0    0    0    0 -0.00000000000E+00 -0.00000000000E+00 -0.64930732323E+04  0.65000000000E+04  0.30000000000E+03 0.  1.
     100001    1    1    2    0    0 -0.24956690154E+03 -0.10677328269E+03  0.64925854309E+04  0.65000000000E+04  0.15050000000E+03 0.  1.
     100001    1    1    2    0    0  0.24956690154E+03  0.10677328269E+03 -0.64925854309E+04  0.65000000000E+04  0.15050000000E+03 0.  1.
</event>
<event>
 4    1  0.5640637E-004  0.6500000E+04  0.7818608E-02  0.7223770E-01
         52   -1    0    0    0    0  0.00000000000E+00  0.00000000000E+00  0.64930732323E+04  0.65000000000E+04  0.30000000000E+03 0.  1.
        -52   -1    0    0    0    0 -0.00000000000E+00 -0.00000000000E+00 -0.64930732323E+04  0.65000000000E+04  0.30000000000E+03 0.  1.
     100001    1    1    2    0    0 -0.56505957266E+03  0.11201725525E+03  0.64726740659E+04  0.65000000000E+04  0.15050000000E+03 0.  1.
     100001    1    1    2    0    0  0.56505957266E+03 -0.11201725525E+03 -0.64726740659E+04  0.65000000000E+04  0.15050000000E+03 0.  1.
</event>
<event>
 4    1  0.5640637E-004  0.6500000E+04  0.7818608E-02  0.7223770E-01
         52   -1    0    0    0    0  0.00000000000E+00  0.00000000000E+00  0.64930732323E+04  0.65000000000E+04  0.30000000000E+03 0. -1.
        -52   -1    0    0    0    0 -0.00000000000E+00 -0.00000000000E+00 -0.64930732323E+04  0.65000000000E+04  0.30000000000E+03 0.  1.
     100001    1    1    2    0    0  0.15307059580E+04  0.66360482171E+03  0.62804392888E+04  0.65000000000E+04  0.15050000000E+03 0. -1.
     100001    1    1    2    0    0 -0.15307059580E+04 -0.66360482171E+03 -0.62804392888E+04  0.65000000000E+04  0.15050000000E+03 0.  1.
</event>
<event>
 4    1  0.5640637E-004  0.6500000E+04  0.7818608E-02  0.7223770E-01
         52   -1    0    0    0    0  0.00000000000E+00  0.00000000000E+00  0.64930732323E+04  0.65000000000E+04  0.30000000000E+03 0.  1.
        -52   -1    0    0    0    0 -0.00000000000E+00 -0.00000000000E+00 -0.64930732323E+04  0.65000000000E+04  0.30000000000E+03 0. -1.
     100001    1    1    2    0    0  0.79561008324E+03 -0.13645983399E+04  0.63033503564E+04  0.65000000000E+04  0.15050000000E+03 0.  1.
     100001    1    1    2    0    0 -0.79561008324E+03  0.13645983399E+04 -0.63033503564E+04  0.65000000000E+04  0.15050000000E+03 0. -1.
</event>
<event>
 4    1  0.5640637E-004  0.6500000E+04  0.7818608E-02  0.7223770E-01
         52   -1    0    0    0    0  0.00000000000E+00  0.00000000000E+00  0.64930732323E+04  0.65000000000E+04  0.30000000000E+03 0.  1.
        -52   -1    0    0    0    0 -0.00000000000E+00 -0.00000000000E+00 -0.64930732323E+04  0.65000000000E+04  0.30000000000E+03 0. -1.
     100001    1    1    2    0    0 -0.18128815158E+03 -0.40615091589E+03  0.64830182623E+04  0.65000000000E+04  0.15050000000E+03 0.  1.
     100001    1    1    2    0    0  0.18128815158E+03  0.40615091589E+03 -0.64830182623E+04  0.65000000000E+04  0.15050000000E+03 0. -1.
</event>
<event>
 4    1  0.5640637E-004  0.6500000E+04  0.7818608E-02  0.7223770E-01
         52   -1    0    0    0    0  0.00000000000E+00  0.00000000000E+00  0.64930732323E+04  0.65000000000E+04  0.30000000000E+03 0.  1.
        -52   -1    0    0    0    0 -0.00000000000E+00 -0.00000000000E+00 -0.64930732323E+04  0.65000000000E+04  0.30000000000E+03 0.  1.
     100001    1    1    2    0    0 -0.65267546670E+02  0.21255353927E+03  0.64944523164E+04  0.65000000000E+04  0.15050000000E+03 0.  1.
     100001    1    1    2    0    0  0.65267546670E+02 -0.21255353927E+03 -0.64944523164E+04  0.65000000000E+04  0.15050000000E+03 0.  1.
</event>
<event>
 4    1  0.5640637E-004  0.6500000E+04  0.7818608E-02  0.7223770E-01
         52   -1    0    0    0    0  0.00000000000E+00  0.00000000000E+00  0.64930732323E+04  0.65000000000E+04  0.30000000000E+03 0.  1.
        -52   -1    0    0    0    0 -0.00000000000E+00 -0.00000000000E+00 -0.64930732323E+04  0.65000000000E+04  0.30000000000E+03 0. -1.
     100001    1    1    2    0    0 -0.24618052791E+04  0.25127029874E+03 -0.60086377620E+04  0.65000000000E+04  0.15050000000E+03 0. -1.
     100001    1    1    2    0    0  0.24618052791E+04 -0.25127029874E+03  0.60086377620E+04  0.65000000000E+04  0.15050000000E+03 0.  1.
</event>
<event>
 4    1  0.5640637E-004  0.6500000E+04  0.7818608E-02  0.7223770E-01
         52   -1    0    0    0    0  0.00000000000E+00  0.00000000000E+00  0.64930732323E+04  0.65000000000E+04  0.30000000000E+03 0. -1.
        -52   -1    0    0    0    0 -0.00000000000E+00 -0.00000000000E+00 -0.64930732323E+04  0.65000000000E+04  0.30000000000E+03 0.  1.
     100001    1    1    2    0    0 -0.38385806242E+02  0.13082504779E+04 -0.63650889206E+04  0.65000000000E+04  0.15050000000E+03 0.  1.
     100001    1    1    2    0    0  0.38385806242E+02 -0.13082504779E+04  0.63650889206E+04  0.65000000000E+04  0.15050000000E+03 0. -1.
</event>
<event>
 4    1  0.5640637E-004  0.6500000E+04  0.7818608E-02  0.7223770E-01
         52   -1    0    0    0    0  0.00000000000E+00  0.00000000000E+00  0.64930732323E+04  0.65000000000E+04  0.30000000000E+03 0.  1.
        -52   -1    0    0    0    0 -0.00000000000E+00 -0.00000000000E+00 -0.64930732323E+04  0.65000000000E+04  0.30000000000E+03 0.  1.
     100001    1    1    2    0    0  0.48918834009E+02 -0.78654384268E+02  0.64975972625E+04  0.65000000000E+04  0.15050000000E+03 0.  1.
     100001    1    1    2    0    0 -0.48918834009E+02  0.78654384268E+02 -0.64975972625E+04  0.65000000000E+04  0.15050000000E+03 0.  1.
</event>
<event>
 4    1  0.5640637E-004  0.6500000E+04  0.7818608E-02  0.7223770E-01
         52   -1    0    0    0    0  0.00000000000E+00  0.00000000000E+00  0.64930732323E+04  0.65000000000E+04  0.30000000000E+03 0. -1.
        -52   -1    0    0    0    0 -0.00000000000E+00 -0.00000000000E+00 -0.64930732323E+04  0.65000000000E+04  0.30000000000E+03 0.  1.
     100001    1    1    2    0    0  0.49266219799E+02  0.10146928933E+04 -0.64183581173E+04  0.65000000000E+04  0.15050000000E+03 0.  1.
     100001    1    1    2    0    0 -0.49266219799E+02 -0.10146928933E+04  0.64183581173E+04  0.65000000000E+04  0.15050000000E+03 0. -1.
</event>
<event>
 4    1  0.5640637E-004  0.6500000E+04  0.7818608E-02  0.7223770E-01
         52   -1    0    0    0    0  0.00000000000E+00  0.00000000000E+00  0.64930732323E+04  0.65000000000E+04  0.30000000000E+03 0. -1.
        -52   -1    0    0    0    0 -0.00000000000E+00 -0.00000000000E+00 -0.64930732323E+04  0.65000000000E+04  0.30000000000E+03 0.  1.
     100001    1    1    2    0    0  0.33547682490E+03 -0.70960988655E+03 -0.64506789456E+04  0.65000000000E+04  0.15050000000E+03 0.  1.
     100001    1    1    2    0    0 -0.33547682490E+03  0.70960988655E+03  0.64506789456E+04  0.65000000000E+04  0.15050000000E+03 0. -1.
</event>
<event>
 4    1  0.5640637E-004  0.6500000E+04  0.7818608E-02  0.7223770E-01
         52   -1    0    0    0    0  0.00000000000E+00  0.00000000000E+00  0.64930732323E+04  0.65000000000E+04  0.30000000000E+03 0.  1.
        -52   -1    0    0    0    0 -0.00000000000E+00 -0.00000000000E+00 -0.64930732323E+04  0.65000000000E+04  0.30000000000E+03 0. -1.
     100001    1    1    2    0    0 -0.11272249838E+04 -0.25025253233E+02 -0.63996943148E+04  0.65000000000E+04  0.15050000000E+03 0. -1.
     100001    1    1    2    0    0  0.11272249838E+04  0.25025253233E+02  0.63996943148E+04  0.65000000000E+04  0.15050000000E+03 0.  1.
</event>
<event>
 4    1  0.5640637E-004  0.6500000E+04  0.7818608E-02  0.7223770E-01
         52   -1    0    0    0    0  0.00000000000E+00  0.00000000000E+00  0.64930732323E+04  0.65000000000E+04  0.30000000000E+03 0.  1.
        -52   -1    0    0    0    0 -0.00000000000E+00 -0.00000000000E+00 -0.64930732323E+04  0.65000000000E+04  0.30000000000E+03 0. -1.
     100001    1    1    2    0    0 -0.58995932614E+03 -0.27078904795E+03 -0.64657537097E+04  0.65000000000E+04  0.15050000000E+03 0. -1.
     100001    1    1    2    0    0  0.58995932614E+03  0.27078904795E+03  0.64657537097E+04  0.65000000000E+04  0.15050000000E+03 0.  1.
</event>
<event>
 4    1  0.5640637E-004  0.6500000E+04  0.7818608E-02  0.7223770E-01
         52   -1    0    0    0    0  0.00000000000E+00  0.00000000000E+00  0.64930732323E+04  0.65000000000E+04  0.30000000000E+03 0. -1.
        -52   -1    0    0    0    0 -0.00000000000E+00 -0.00000000000E+00 -0.64930732323E+04  0.65000000000E+04  0.30000000000E+03 0.  1.
     100001    1    1    2    0    0  0.25842561806E+03  0.92464186585E+03 -0.64269435481E+04  0.65000000000E+04  0.15050000000E+03 0.  1.
     100001    1    1    2    0    0 -0.25842561806E+03 -0.92464186585E+03  0.64269435481E+04  0.65000000000E+04  0.15050000000E+03 0. -1.
</event>
<event>
 4    1  0.5640637E-004  0.6500000E+04  0.7818608E-02  0.7223770E-01
         52   -1    0    0    0    0  0.00000000000E+00  0.00000000000E+00  0.64930732323E+04  0.65000000000E+04  0.30000000000E+03 0.  1.
        -52   -1    0    0    0    0 -0.00000000000E+00 -0.00000000000E+00 -0.64930732323E+04  0.65000000000E+04  0.30000000000E+03 0. -1.
     100001    1    1    2    0    0  0.14123491828E+04 -0.13390183862E+04  0.61999717175E+04  0.65000000000E+04  0.15050000000E+03 0.  1.
     100001    1    1    2    0    0 -0.14123491828E+04  0.13390183862E+04 -0.61999717175E+04  0.65000000000E+04  0.15050000000E+03 0. -1.
</event>
<event>
 4    1  0.5640637E-004  0.6500000E+04  0.7818608E-02  0.7223770E-01
         52   -1    0    0    0    0  0.00000000000E+00  0.00000000000E+00  0.64930732323E+04  0.65000000000E+04  0.30000000000E+03 0.  1.
        -52   -1    0    0    0    0 -0.00000000000E+00 -0.00000000000E+00 -0.64930732323E+04  0.65000000000E+04  0.30000000000E+03 0.  1.
     100001    1    1    2    0    0 -0.27191832035E+03  0.28587086967E+04 -0.58293391362E+04  0.65000000000E+04  0.15050000000E+03 0.  1.
     100001    1    1    2    0    0  0.27191832035E+03 -0.28587086967E+04  0.58293391362E+04  0.65000000000E+04  0.15050000000E+03 0.  1.
</event>
<event>
 4    1  0.5640637E-004  0.6500000E+04  0.7818608E-02  0.7223770E-01
         52   -1    0    0    0    0  0.00000000000E+00  0.00000000000E+00  0.64930732323E+04  0.65000000000E+04  0.30000000000E+03 0.  1.
        -52   -1    0    0    0    0 -0.00000000000E+00 -0.00000000000E+00 -0.64930732323E+04  0.65000000000E+04  0.30000000000E+03 0.  1.
     100001    1    1    2    0    0  0.55321096377E+02 -0.13690522065E+03 -0.64965795837E+04  0.65000000000E+04  0.15050000000E+03 0.  1.
     100001    1    1    2    0    0 -0.55321096377E+02  0.13690522065E+03  0.64965795837E+04  0.65000000000E+04  0.15050000000E+03 0.  1.
</event>
<event>
 4    1  0.5640637E-004  0.6500000E+04  0.7818608E-02  0.7223770E-01
         52   -1    0    0    0    0  0.00000000000E+00  0.00000000000E+00  0.64930732323E+04  0.65000000000E+04  0.30000000000E+03 0.  1.
        -52   -1    0    0    0    0 -0.00000000000E+00 -0.00000000000E+00 -0.64930732323E+04  0.65000000000E+04  0.30000000000E+03 0. -1.
     100001    1    1    2    0    0  0.14053082688E+04 -0.58057509124E+03 -0.63178628493E+04  0.65000000000E+04  0.15050000000E+03 0. -1.
     100001    1    1    2    0    0 -0.14053082688E+04  0.58057509124E+03  0.63178628493E+04  0.65000000000E+04  0.15050000000E+03 0.  1.
</event>
<event>
 4    1  0.5640637E-004  0.6500000E+04  0.7818608E-02  0.7223770E-01
         52   -1    0    0    0    0  0.00000000000E+00  0.00000000000E+00  0.64930732323E+04  0.65000000000E+04  0.30000000000E+03 0.  1.
        -52   -1    0    0    0    0 -0.00000000000E+00 -0.00000000000E+00 -0.64930732323E+04  0.65000000000E+04  0.30000000000E+03 0. -1.
     100001    1    1    2    0    0 -0.21152738018E+04  0.19433427484E+04  0.58289266126E+04  0.65000000000E+04  0.15050000000E+03 0.  1.
     100001    1    1    2    0    0  0.21152738018E+04 -0.19433427484E+04 -0.58289266126E+04  0.65000000000E+04  0.15050000000E+03 0. -1.
</event>
<event>
 4    1  0.5640637E-004  0.6500000E+04  0.7818608E-02  0.7223770E-01
         52   -1    0    0    0    0  0.00000000000E+00  0.00000000000E+00  0.64930732323E+04  0.65000000000E+04  0.30000000000E+03 0.  1.
        -52   -1    0    0    0    0 -0.00000000000E+00 -0.00000000000E+00 -0.64930732323E+04  0.65000000000E+04  0.30000000000E+03 0. -1.
     100001    1    1    2    0    0  0.49055197533E+04  0.24889409252E+04 -0.34595373637E+04  0.65000000000E+04  0.15050000000E+03 0. -1.
     100001    1    1    2    0    0 -0.49055197533E+04 -0.24889409252E+04  0.34595373637E+04  0.65000000000E+04  0.15050000000E+03 0.  1.
</event>
<event>
 4    1  0.5640637E-004  0.6500000E+04  0.7818608E-02  0.7223770E-01
         52   -1    0    0    0    0  0.00000000000E+00  0.00000000000E+00  0.64930732323E+04  0.65000000000E+04  0.30000000000E+03 0. -1.
        -52   -1    0    0    0    0 -0.00000000000E+00 -0.00000000000E+00 -0.64930732323E+04  0.65000000000E+04  0.30000000000E+03 0.  1.
     100001    1    1    2    0    0  0.60024862070E+03  0.11141348893E+04 -0.63738336025E+04  0.65000000000E+04  0.15050000000E+03 0.  1.
     100001    1    1    2    0    0 -0.60024862070E+03 -0.11141348893E+04  0.63738336025E+04  0.65000000000E+04  0.15050000000E+03 0. -1.
</event>
<event>
 4    1  0.5640637E-004  0.6500000E+04  0.7818608E-02  0.7223770E-01
         52   -1    0    0    0    0  0.00000000000E+00  0.00000000000E+00  0.64930732323E+04  0.65000000000E+04  0.30000000000E+03 0. -1.
        -52   -1    0    0    0    0 -0.00000000000E+00 -0.00000000000E+00 -0.64930732323E+04  0.65000000000E+04  0.30000000000E+03 0.  1.
     100001    1    1    2    0    0 -0.44376691820E+04  0.21541694224E+04 -0.42301295584E+04  0.65000000000E+04  0.15050000000E+03 0.  1.
     100001    1    1    2    0    0  0.44376691820E+04 -0.21541694224E+04  0.42301295584E+04  0.65000000000E+04  0.15050000000E+03 0. -1.
</event>
<event>
 4    1  0.5640637E-004  0.6500000E+04  0.7818608E-02  0.7223770E-01
         52   -1    0    0    0    0  0.00000000000E+00  0.00000000000E+00  0.64930732323E+04  0.65000000000E+04  0.30000000000E+03 0.  1.
        -52   -1    0    0    0    0 -0.00000000000E+00 -0.00000000000E+00 -0.64930732323E+04  0.65000000000E+04  0.30000000000E+03 0. -1.
     100001    1    1    2    0    0  0.28816914477E+04 -0.29855654712E+04  0.50009602045E+04  0.65000000000E+04  0.15050000000E+03 0.  1.
     100001    1    1    2    0    0 -0.28816914477E+04  0.29855654712E+04 -0.50009602045E+04  0.65000000000E+04  0.15050000000E+03 0. -1.
</event>
<event>
 4    1  0.5640637E-004  0.6500000E+04  0.7818608E-02  0.7223770E-01
         52   -1    0    0    0    0  0.00000000000E+00  0.00000000000E+00  0.64930732323E+04  0.65000000000E+04  0.30000000000E+03 0. -1.
        -52   -1    0    0    0    0 -0.00000000000E+00 -0.00000000000E+00 -0.64930732323E+04  0.65000000000E+04  0.30000000000E+03 0.  1.
     100001    1    1    2    0    0 -0.13900608278E+04  0.15082008763E+04 -0.61660693121E+04  0.65000000000E+04  0.15050000000E+03 0.  1.
     100001    1    1    2    0    0  0.13900608278E+04 -0.15082008763E+04  0.61660693121E+04  0.65000000000E+04  0.15050000000E+03 0. -1.
</event>
<event>
 4    1  0.5640637E-004  0.6500000E+04  0.7818608E-02  0.7223770E-01
         52   -1    0    0    0    0  0.00000000000E+00  0.00000000000E+00  0.64930732323E+04  0.65000000000E+04  0.30000000000E+03 0.  1.
        -52   -1    0    0    0    0 -0.00000000000E+00 -0.00000000000E+00 -0.64930732323E+04  0.65000000000E+04  0.30000000000E+03 0. -1.
     100001    1    1    2    0    0 -0.34978335996E+03  0.11989132449E+04 -0.63771159925E+04  0.65000000000E+04  0.15050000000E+03 0. -1.
     100001    1    1    2    0    0  0.34978335996E+03 -0.11989132449E+04  0.63771159925E+04  0.65000000000E+04  0.15050000000E+03 0.  1.
</event>
<event>
 4    1  0.5640637E-004  0.6500000E+04  0.7818608E-02  0.7223770E-01
         52   -1    0    0    0    0  0.00000000000E+00  0.00000000000E+00  0.64930732323E+04  0.65000000000E+04  0.30000000000E+03 0. -1.
        -52   -1    0    0    0    0 -0.00000000000E+00 -0.00000000000E+00 -0.64930732323E+04  0.65000000000E+04  0.30000000000E+03 0.  1.
     100001    1    1    2    0    0  0.60240862582E+04 -0.12280203354E+04 -0.21046853825E+04  0.65000000000E+04  0.15050000000E+03 0. -1.
     100001    1    1    2    0    0 -0.60240862582E+04  0.12280203354E+04  0.21046853825E+04  0.65000000000E+04  0.15050000000E+03 0.  1.
</event>
<event>
 4    1  0.5640637E-004  0.6500000E+04  0.7818608E-02  0.7223770E-01
         52   -1    0    0    0    0  0.00000000000E+00  0.00000000000E+00  0.64930732323E+04  0.65000000000E+04  0.30000000000E+03 0.  1.
        -52   -1    0    0    0    0 -0.00000000000E+00 -0.00000000000E+00 -0.64930732323E+04  0.65000000000E+04  0.30000000000E+03 0. -1.
     100001    1    1    2    0    0 -0.73991814448E+03  0.71062181991E+03  0.64167661262E+04  0.65000000000E+04  0.15050000000E+03 0.  1.
     100001    1    1    2    0    0  0.73991814448E+03 -0.71062181991E+03 -0.64167661262E+04  0.65000000000E+04  0.15050000000E+03 0. -1.
</event>
<event>
 4    1  0.5640637E-004  0.6500000E+04  0.7818608E-02  0.7223770E-01
         52   -1    0    0    0    0  0.00000000000E+00  0.00000000000E+00  0.64930732323E+04  0.65000000000E+04  0.30000000000E+03 0. -1.
        -52   -1    0    0    0    0 -0.00000000000E+00 -0.00000000000E+00 -0.64930732323E+04  0.65000000000E+04  0.30000000000E+03 0.  1.
     100001    1    1    2    0    0 -0.12279115570E+04 -0.41329691448E+04 -0.48619079594E+04  0.65000000000E+04  0.15050000000E+03 0.  1.
     100001    1    1    2    0    0  0.12279115570E+04  0.41329691448E+04  0.48619079594E+04  0.65000000000E+04  0.15050000000E+03 0. -1.
</event>
<event>
 4    1  0.5640637E-004  0.6500000E+04  0.7818608E-02  0.7223770E-01
         52   -1    0    0    0    0  0.00000000000E+00  0.00000000000E+00  0.64930732323E+04  0.65000000000E+04  0.30000000000E+03 0. -1.
        -52   -1    0    0    0    0 -0.00000000000E+00 -0.00000000000E+00 -0.64930732323E+04  0.65000000000E+04  0.30000000000E+03 0.  1.
     100001    1    1    2    0    0  0.46407604753E+03 -0.16709113807E+04  0.62625903850E+04  0.65000000000E+04  0.15050000000E+03 0. -1.
     100001    1    1    2    0    0 -0.46407604753E+03  0.16709113807E+04 -0.62625903850E+04  0.65000000000E+04  0.15050000000E+03 0.  1.
</event>
<event>
 4    1  0.5640637E-004  0.6500000E+04  0.7818608E-02  0.7223770E-01
         52   -1    0    0    0    0  0.00000000000E+00  0.00000000000E+00  0.64930732323E+04  0.65000000000E+04  0.30000000000E+03 0. -1.
        -52   -1    0    0    0    0 -0.00000000000E+00 -0.00000000000E+00 -0.64930732323E+04  0.65000000000E+04  0.30000000000E+03 0.  1.
     100001    1    1    2    0    0  0.28277476369E+04  0.24406179718E+04 -0.53173844104E+04  0.65000000000E+04  0.15050000000E+03 0.  1.
     100001    1    1    2    0    0 -0.28277476369E+04 -0.24406179718E+04  0.53173844104E+04  0.65000000000E+04  0.15050000000E+03 0. -1.
</event>
<event>
 4    1  0.8141130E-004  0.6500000E+04  0.7818608E-02  0.7223770E-01
         52   -1    0    0    0    0  0.00000000000E+00  0.00000000000E+00  0.64930732323E+04  0.65000000000E+04  0.30000000000E+03 0.  1.
        -52   -1    0    0    0    0 -0.00000000000E+00 -0.00000000000E+00 -0.64930732323E+04  0.65000000000E+04  0.30000000000E+03 0.  1.
     100001    1    1    2    0    0 -0.54009690479E+02 -0.15662292924E+03  0.64961451617E+04  0.65000000000E+04  0.15050000000E+03 0.  1.
     100001    1    1    2    0    0  0.54009690479E+02  0.15662292924E+03 -0.64961451617E+04  0.65000000000E+04  0.15050000000E+03 0.  1.
</event>
<event>
 4    1  0.5640637E-004  0.6500000E+04  0.7818608E-02  0.7223770E-01
         52   -1    0    0    0    0  0.00000000000E+00  0.00000000000E+00  0.64930732323E+04  0.65000000000E+04  0.30000000000E+03 0.  1.
        -52   -1    0    0    0    0 -0.00000000000E+00 -0.00000000000E+00 -0.64930732323E+04  0.65000000000E+04  0.30000000000E+03 0. -1.
     100001    1    1    2    0    0  0.28536377451E+03  0.33537922805E+03 -0.64833199859E+04  0.65000000000E+04  0.15050000000E+03 0. -1.
     100001    1    1    2    0    0 -0.28536377451E+03 -0.33537922805E+03  0.64833199859E+04  0.65000000000E+04  0.15050000000E+03 0.  1.
</event>
<event>
 4    1  0.5640637E-004  0.6500000E+04  0.7818608E-02  0.7223770E-01
         52   -1    0    0    0    0  0.00000000000E+00  0.00000000000E+00  0.64930732323E+04  0.65000000000E+04  0.30000000000E+03 0.  1.
        -52   -1    0    0    0    0 -0.00000000000E+00 -0.00000000000E+00 -0.64930732323E+04  0.65000000000E+04  0.30000000000E+03 0. -1.
     100001    1    1    2    0    0 -0.23641912889E+04 -0.47932421444E+03  0.60339205826E+04  0.65000000000E+04  0.15050000000E+03 0.  1.
     100001    1    1    2    0    0  0.23641912889E+04  0.47932421444E+03 -0.60339205826E+04  0.65000000000E+04  0.15050000000E+03 0. -1.
</event>
<event>
 4    1  0.5640637E-004  0.6500000E+04  0.7818608E-02  0.7223770E-01
         52   -1    0    0    0    0  0.00000000000E+00  0.00000000000E+00  0.64930732323E+04  0.65000000000E+04  0.30000000000E+03 0.  1.
        -52   -1    0    0    0    0 -0.00000000000E+00 -0.00000000000E+00 -0.64930732323E+04  0.65000000000E+04  0.30000000000E+03 0. -1.
     100001    1    1    2    0    0 -0.67151202470E+03  0.35486493146E+03  0.64537192557E+04  0.65000000000E+04  0.15050000000E+03 0.  1.
     100001    1    1    2    0    0  0.67151202470E+03 -0.35486493146E+03 -0.64537192557E+04  0.65000000000E+04  0.15050000000E+03 0. -1.
</event>
<event>
 4    1  0.5640637E-004  0.6500000E+04  0.7818608E-02  0.7223770E-01
         52   -1    0    0    0    0  0.00000000000E+00  0.00000000000E+00  0.64930732323E+04  0.65000000000E+04  0.30000000000E+03 0.  1.
        -52   -1    0    0    0    0 -0.00000000000E+00 -0.00000000000E+00 -0.64930732323E+04  0.65000000000E+04  0.30000000000E+03 0. -1.
     100001    1    1    2    0    0  0.13655733682E+04 -0.27309220289E+03 -0.63472812900E+04  0.65000000000E+04  0.15050000000E+03 0. -1.
     100001    1    1    2    0    0 -0.13655733682E+04  0.27309220289E+03  0.63472812900E+04  0.65000000000E+04  0.15050000000E+03 0.  1.
</event>
<event>
 4    1  0.5640637E-004  0.6500000E+04  0.7818608E-02  0.7223770E-01
         52   -1    0    0    0    0  0.00000000000E+00  0.00000000000E+00  0.64930732323E+04  0.65000000000E+04  0.30000000000E+03 0.  1.
        -52   -1    0    0    0    0 -0.00000000000E+00 -0.00000000000E+00 -0.64930732323E+04  0.65000000000E+04  0.30000000000E+03 0. -1.
     100001    1    1    2    0    0  0.56925600649E+03  0.91124952233E+03  0.64088159325E+04  0.65000000000E+04  0.15050000000E+03 0.  1.
     100001    1    1    2    0    0 -0.56925600649E+03 -0.91124952233E+03 -0.64088159325E+04  0.65000000000E+04  0.15050000000E+03 0. -1.
</event>
<event>
 4    1  0.5640637E-004  0.6500000E+04  0.7818608E-02  0.7223770E-01
         52   -1    0    0    0    0  0.00000000000E+00  0.00000000000E+00  0.64930732323E+04  0.65000000000E+04  0.30000000000E+03 0.  1.
        -52   -1    0    0    0    0 -0.00000000000E+00 -0.00000000000E+00 -0.64930732323E+04  0.65000000000E+04  0.30000000000E+03 0. -1.
     100001    1    1    2    0    0 -0.33331409909E+03 -0.65697855722E+02  0.64893709443E+04  0.65000000000E+04  0.15050000000E+03 0.  1.
     100001    1    1    2    0    0  0.33331409909E+03  0.65697855722E+02 -0.64893709443E+04  0.65000000000E+04  0.15050000000E+03 0. -1.
</event>
<event>
 4    1  0.5640637E-004  0.6500000E+04  0.7818608E-02  0.7223770E-01
         52   -1    0    0    0    0  0.00000000000E+00  0.00000000000E+00  0.64930732323E+04  0.65000000000E+04  0.30000000000E+03 0.  1.
        -52   -1    0    0    0    0 -0.00000000000E+00 -0.00000000000E+00 -0.64930732323E+04  0.65000000000E+04  0.30000000000E+03 0. -1.
     100001    1    1    2    0    0  0.34264396263E+04  0.24796861241E+04  0.49333576764E+04  0.65000000000E+04  0.15050000000E+03 0.  1.
     100001    1    1    2    0    0 -0.34264396263E+04 -0.24796861241E+04 -0.49333576764E+04  0.65000000000E+04  0.15050000000E+03 0. -1.
</event>
<event>
 4    1  0.5640637E-004  0.6500000E+04  0.7818608E-02  0.7223770E-01
         52   -1    0    0    0    0  0.00000000000E+00  0.00000000000E+00  0.64930732323E+04  0.65000000000E+04  0.30000000000E+03 0. -1.
        -52   -1    0    0    0    0 -0.00000000000E+00 -0.00000000000E+00 -0.64930732323E+04  0.65000000000E+04  0.30000000000E+03 0.  1.
     100001    1    1    2    0    0 -0.15062376498E+04 -0.19396965629E+04  0.60163257173E+04  0.65000000000E+04  0.15050000000E+03 0. -1.
     100001    1    1    2    0    0  0.15062376498E+04  0.19396965629E+04 -0.60163257173E+04  0.65000000000E+04  0.15050000000E+03 0.  1.
</event>
<event>
 4    1  0.5640637E-004  0.6500000E+04  0.7818608E-02  0.7223770E-01
         52   -1    0    0    0    0  0.00000000000E+00  0.00000000000E+00  0.64930732323E+04  0.65000000000E+04  0.30000000000E+03 0.  1.
        -52   -1    0    0    0    0 -0.00000000000E+00 -0.00000000000E+00 -0.64930732323E+04  0.65000000000E+04  0.30000000000E+03 0. -1.
     100001    1    1    2    0    0 -0.17910464529E+03  0.48337564097E+02  0.64956088826E+04  0.65000000000E+04  0.15050000000E+03 0.  1.
     100001    1    1    2    0    0  0.17910464529E+03 -0.48337564097E+02 -0.64956088826E+04  0.65000000000E+04  0.15050000000E+03 0. -1.
</event>
<event>
 4    1  0.5640637E-004  0.6500000E+04  0.7818608E-02  0.7223770E-01
         52   -1    0    0    0    0  0.00000000000E+00  0.00000000000E+00  0.64930732323E+04  0.65000000000E+04  0.30000000000E+03 0. -1.
        -52   -1    0    0    0    0 -0.00000000000E+00 -0.00000000000E+00 -0.64930732323E+04  0.65000000000E+04  0.30000000000E+03 0.  1.
     100001    1    1    2    0    0  0.29546184828E+02  0.34921891245E+04 -0.54800631284E+04  0.65000000000E+04  0.15050000000E+03 0.  1.
     100001    1    1    2    0    0 -0.29546184828E+02 -0.34921891245E+04  0.54800631284E+04  0.65000000000E+04  0.15050000000E+03 0. -1.
</event>
<event>
 4    1  0.5640637E-004  0.6500000E+04  0.7818608E-02  0.7223770E-01
         52   -1    0    0    0    0  0.00000000000E+00  0.00000000000E+00  0.64930732323E+04  0.65000000000E+04  0.30000000000E+03 0.  1.
        -52   -1    0    0    0    0 -0.00000000000E+00 -0.00000000000E+00 -0.64930732323E+04  0.65000000000E+04  0.30000000000E+03 0. -1.
     100001    1    1    2    0    0  0.16737881059E+04  0.21266922792E+04  0.59078729739E+04  0.65000000000E+04  0.15050000000E+03 0.  1.
     100001    1    1    2    0    0 -0.16737881059E+04 -0.21266922792E+04 -0.59078729739E+04  0.65000000000E+04  0.15050000000E+03 0. -1.
</event>
<event>
 4    1  0.5640637E-004  0.6500000E+04  0.7818608E-02  0.7223770E-01
         52   -1    0    0    0    0  0.00000000000E+00  0.00000000000E+00  0.64930732323E+04  0.65000000000E+04  0.30000000000E+03 0.  1.
        -52   -1    0    0    0    0 -0.00000000000E+00 -0.00000000000E+00 -0.64930732323E+04  0.65000000000E+04  0.30000000000E+03 0. -1.
     100001    1    1    2    0    0  0.22361160381E+04 -0.19186764411E+04  0.57918749579E+04  0.65000000000E+04  0.15050000000E+03 0.  1.
     100001    1    1    2    0    0 -0.22361160381E+04  0.19186764411E+04 -0.57918749579E+04  0.65000000000E+04  0.15050000000E+03 0. -1.
</event>
<event>
 4    1  0.5640637E-004  0.6500000E+04  0.7818608E-02  0.7223770E-01
         52   -1    0    0    0    0  0.00000000000E+00  0.00000000000E+00  0.64930732323E+04  0.65000000000E+04  0.30000000000E+03 0. -1.
        -52   -1    0    0    0    0 -0.00000000000E+00 -0.00000000000E+00 -0.64930732323E+04  0.65000000000E+04  0.30000000000E+03 0.  1.
     100001    1    1    2    0    0  0.25813812317E+04  0.40012419544E+04 -0.44219773302E+04  0.65000000000E+04  0.15050000000E+03 0.  1.
     100001    1    1    2    0    0 -0.25813812317E+04 -0.40012419544E+04  0.44219773302E+04  0.65000000000E+04  0.15050000000E+03 0. -1.
</event>
<event>
 4    1  0.5640637E-004  0.6500000E+04  0.7818608E-02  0.7223770E-01
         52   -1    0    0    0    0  0.00000000000E+00  0.00000000000E+00  0.64930732323E+04  0.65000000000E+04  0.30000000000E+03 0.  1.
        -52   -1    0    0    0    0 -0.00000000000E+00 -0.00000000000E+00 -0.64930732323E+04  0.65000000000E+04  0.30000000000E+03 0.  1.
     100001    1    1    2    0    0 -0.24845905661E+03  0.18079101519E+03  0.64909885577E+04  0.65000000000E+04  0.15050000000E+03 0.  1.
     100001    1    1    2    0    0  0.24845905661E+03 -0.18079101519E+03 -0.64909885577E+04  0.65000000000E+04  0.15050000000E+03 0.  1.
</event>
<event>
 4    1  0.5640637E-004  0.6500000E+04  0.7818608E-02  0.7223770E-01
         52   -1    0    0    0    0  0.00000000000E+00  0.00000000000E+00  0.64930732323E+04  0.65000000000E+04  0.30000000000E+03 0.  1.
        -52   -1    0    0    0    0 -0.00000000000E+00 -0.00000000000E+00 -0.64930732323E+04  0.65000000000E+04  0.30000000000E+03 0. -1.
     100001    1    1    2    0    0  0.11596478595E+04 -0.39899661758E+03 -0.63814863701E+04  0.65000000000E+04  0.15050000000E+03 0. -1.
     100001    1    1    2    0    0 -0.11596478595E+04  0.39899661758E+03  0.63814863701E+04  0.65000000000E+04  0.15050000000E+03 0.  1.
</event>
<event>
 4    1  0.6835973E-004  0.6500000E+04  0.7818608E-02  0.7223770E-01
         52   -1    0    0    0    0  0.00000000000E+00  0.00000000000E+00  0.64930732323E+04  0.65000000000E+04  0.30000000000E+03 0.  1.
        -52   -1    0    0    0    0 -0.00000000000E+00 -0.00000000000E+00 -0.64930732323E+04  0.65000000000E+04  0.30000000000E+03 0.  1.
     100001    1    1    2    0    0 -0.10523007337E+03 -0.12243570504E+03 -0.64962516792E+04  0.65000000000E+04  0.15050000000E+03 0.  1.
     100001    1    1    2    0    0  0.10523007337E+03  0.12243570504E+03  0.64962516792E+04  0.65000000000E+04  0.15050000000E+03 0.  1.
</event>
<event>
 4    1  0.5640637E-004  0.6500000E+04  0.7818608E-02  0.7223770E-01
         52   -1    0    0    0    0  0.00000000000E+00  0.00000000000E+00  0.64930732323E+04  0.65000000000E+04  0.30000000000E+03 0.  1.
        -52   -1    0    0    0    0 -0.00000000000E+00 -0.00000000000E+00 -0.64930732323E+04  0.65000000000E+04  0.30000000000E+03 0. -1.
     100001    1    1    2    0    0  0.22247549263E+02  0.33232594746E+03  0.64897160386E+04  0.65000000000E+04  0.15050000000E+03 0.  1.
     100001    1    1    2    0    0 -0.22247549263E+02 -0.33232594746E+03 -0.64897160386E+04  0.65000000000E+04  0.15050000000E+03 0. -1.
</event>
<event>
 4    1  0.5640637E-004  0.6500000E+04  0.7818608E-02  0.7223770E-01
         52   -1    0    0    0    0  0.00000000000E+00  0.00000000000E+00  0.64930732323E+04  0.65000000000E+04  0.30000000000E+03 0. -1.
        -52   -1    0    0    0    0 -0.00000000000E+00 -0.00000000000E+00 -0.64930732323E+04  0.65000000000E+04  0.30000000000E+03 0.  1.
     100001    1    1    2    0    0 -0.15126030597E+04 -0.51010748854E+04  0.37307394371E+04  0.65000000000E+04  0.15050000000E+03 0. -1.
     100001    1    1    2    0    0  0.15126030597E+04  0.51010748854E+04 -0.37307394371E+04  0.65000000000E+04  0.15050000000E+03 0.  1.
</event>
<event>
 4    1  0.5640637E-004  0.6500000E+04  0.7818608E-02  0.7223770E-01
         52   -1    0    0    0    0  0.00000000000E+00  0.00000000000E+00  0.64930732323E+04  0.65000000000E+04  0.30000000000E+03 0.  1.
        -52   -1    0    0    0    0 -0.00000000000E+00 -0.00000000000E+00 -0.64930732323E+04  0.65000000000E+04  0.30000000000E+03 0. -1.
     100001    1    1    2    0    0  0.22273575869E+04 -0.45394717662E+04 -0.40815957681E+04  0.65000000000E+04  0.15050000000E+03 0. -1.
     100001    1    1    2    0    0 -0.22273575869E+04  0.45394717662E+04  0.40815957681E+04  0.65000000000E+04  0.15050000000E+03 0.  1.
</event>
<event>
 4    1  0.5640637E-004  0.6500000E+04  0.7818608E-02  0.7223770E-01
         52   -1    0    0    0    0  0.00000000000E+00  0.00000000000E+00  0.64930732323E+04  0.65000000000E+04  0.30000000000E+03 0.  1.
        -52   -1    0    0    0    0 -0.00000000000E+00 -0.00000000000E+00 -0.64930732323E+04  0.65000000000E+04  0.30000000000E+03 0. -1.
     100001    1    1    2    0    0 -0.35764766092E+04 -0.17384849304E+04  0.51394391679E+04  0.65000000000E+04  0.15050000000E+03 0.  1.
     100001    1    1    2    0    0  0.35764766092E+04  0.17384849304E+04 -0.51394391679E+04  0.65000000000E+04  0.15050000000E+03 0. -1.
</event>
<event>
 4    1  0.5640637E-004  0.6500000E+04  0.7818608E-02  0.7223770E-01
         52   -1    0    0    0    0  0.00000000000E+00  0.00000000000E+00  0.64930732323E+04  0.65000000000E+04  0.30000000000E+03 0.  1.
        -52   -1    0    0    0    0 -0.00000000000E+00 -0.00000000000E+00 -0.64930732323E+04  0.65000000000E+04  0.30000000000E+03 0. -1.
     100001    1    1    2    0    0  0.46483151474E+04 -0.11061253971E+04  0.44042028390E+04  0.65000000000E+04  0.15050000000E+03 0.  1.
     100001    1    1    2    0    0 -0.46483151474E+04  0.11061253971E+04 -0.44042028390E+04  0.65000000000E+04  0.15050000000E+03 0. -1.
</event>
<event>
 4    1  0.5817211E-004  0.6500000E+04  0.7818608E-02  0.7223770E-01
         52   -1    0    0    0    0  0.00000000000E+00  0.00000000000E+00  0.64930732323E+04  0.65000000000E+04  0.30000000000E+03 0. -1.
        -52   -1    0    0    0    0 -0.00000000000E+00 -0.00000000000E+00 -0.64930732323E+04  0.65000000000E+04  0.30000000000E+03 0.  1.
     100001    1    1    2    0    0 -0.11411080929E+03 -0.21939269281E+03 -0.64935502862E+04  0.65000000000E+04  0.15050000000E+03 0.  1.
     100001    1    1    2    0    0  0.11411080929E+03  0.21939269281E+03  0.64935502862E+04  0.65000000000E+04  0.15050000000E+03 0. -1.
</event>
<event>
 4    1  0.5640637E-004  0.6500000E+04  0.7818608E-02  0.7223770E-01
         52   -1    0    0    0    0  0.00000000000E+00  0.00000000000E+00  0.64930732323E+04  0.65000000000E+04  0.30000000000E+03 0. -1.
        -52   -1    0    0    0    0 -0.00000000000E+00 -0.00000000000E+00 -0.64930732323E+04  0.65000000000E+04  0.30000000000E+03 0.  1.
     100001    1    1    2    0    0 -0.89844591391E+03 -0.61085118120E+03  0.64067937008E+04  0.65000000000E+04  0.15050000000E+03 0. -1.
     100001    1    1    2    0    0  0.89844591391E+03  0.61085118120E+03 -0.64067937008E+04  0.65000000000E+04  0.15050000000E+03 0.  1.
</event>
<event>
 4    1  0.5640637E-004  0.6500000E+04  0.7818608E-02  0.7223770E-01
         52   -1    0    0    0    0  0.00000000000E+00  0.00000000000E+00  0.64930732323E+04  0.65000000000E+04  0.30000000000E+03 0.  1.
        -52   -1    0    0    0    0 -0.00000000000E+00 -0.00000000000E+00 -0.64930732323E+04  0.65000000000E+04  0.30000000000E+03 0.  1.
     100001    1    1    2    0    0 -0.30682043854E+03  0.17862233118E+03  0.64885518439E+04  0.65000000000E+04  0.15050000000E+03 0.  1.
     100001    1    1    2    0    0  0.30682043854E+03 -0.17862233118E+03 -0.64885518439E+04  0.65000000000E+04  0.15050000000E+03 0.  1.
</event>
<event>
 4    1  0.5640637E-004  0.6500000E+04  0.7818608E-02  0.7223770E-01
         52   -1    0    0    0    0  0.00000000000E+00  0.00000000000E+00  0.64930732323E+04  0.65000000000E+04  0.30000000000E+03 0. -1.
        -52   -1    0    0    0    0 -0.00000000000E+00 -0.00000000000E+00 -0.64930732323E+04  0.65000000000E+04  0.30000000000E+03 0.  1.
     100001    1    1    2    0    0 -0.51382632230E+03  0.10477670698E+04 -0.63926142092E+04  0.65000000000E+04  0.15050000000E+03 0.  1.
     100001    1    1    2    0    0  0.51382632230E+03 -0.10477670698E+04  0.63926142092E+04  0.65000000000E+04  0.15050000000E+03 0. -1.
</event>
<event>
 4    1  0.5640637E-004  0.6500000E+04  0.7818608E-02  0.7223770E-01
         52   -1    0    0    0    0  0.00000000000E+00  0.00000000000E+00  0.64930732323E+04  0.65000000000E+04  0.30000000000E+03 0.  1.
        -52   -1    0    0    0    0 -0.00000000000E+00 -0.00000000000E+00 -0.64930732323E+04  0.65000000000E+04  0.30000000000E+03 0.  1.
     100001    1    1    2    0    0  0.30860503969E+03 -0.13940653213E+03 -0.64894282104E+04  0.65000000000E+04  0.15050000000E+03 0.  1.
     100001    1    1    2    0    0 -0.30860503969E+03  0.13940653213E+03  0.64894282104E+04  0.65000000000E+04  0.15050000000E+03 0.  1.
</event>
<event>
 4    1  0.5640637E-004  0.6500000E+04  0.7818608E-02  0.7223770E-01
         52   -1    0    0    0    0  0.00000000000E+00  0.00000000000E+00  0.64930732323E+04  0.65000000000E+04  0.30000000000E+03 0. -1.
        -52   -1    0    0    0    0 -0.00000000000E+00 -0.00000000000E+00 -0.64930732323E+04  0.65000000000E+04  0.30000000000E+03 0.  1.
     100001    1    1    2    0    0  0.68710162340E+03 -0.98150901508E+01 -0.64618220939E+04  0.65000000000E+04  0.15050000000E+03 0.  1.
     100001    1    1    2    0    0 -0.68710162340E+03  0.98150901508E+01  0.64618220939E+04  0.65000000000E+04  0.15050000000E+03 0. -1.
</event>
<event>
 4    1  0.5640637E-004  0.6500000E+04  0.7818608E-02  0.7223770E-01
         52   -1    0    0    0    0  0.00000000000E+00  0.00000000000E+00  0.64930732323E+04  0.65000000000E+04  0.30000000000E+03 0. -1.
        -52   -1    0    0    0    0 -0.00000000000E+00 -0.00000000000E+00 -0.64930732323E+04  0.65000000000E+04  0.30000000000E+03 0.  1.
     100001    1    1    2    0    0 -0.27508915187E+04  0.54953028104E+04 -0.21122482392E+04  0.65000000000E+04  0.15050000000E+03 0.  1.
     100001    1    1    2    0    0  0.27508915187E+04 -0.54953028104E+04  0.21122482392E+04  0.65000000000E+04  0.15050000000E+03 0. -1.
</event>
<event>
 4    1  0.5640637E-004  0.6500000E+04  0.7818608E-02  0.7223770E-01
         52   -1    0    0    0    0  0.00000000000E+00  0.00000000000E+00  0.64930732323E+04  0.65000000000E+04  0.30000000000E+03 0. -1.
        -52   -1    0    0    0    0 -0.00000000000E+00 -0.00000000000E+00 -0.64930732323E+04  0.65000000000E+04  0.30000000000E+03 0.  1.
     100001    1    1    2    0    0  0.21855955384E+04 -0.60917642984E+04  0.58389179281E+03  0.65000000000E+04  0.15050000000E+03 0. -1.
     100001    1    1    2    0    0 -0.21855955384E+04  0.60917642984E+04 -0.58389179281E+03  0.65000000000E+04  0.15050000000E+03 0.  1.
</event>
<event>
 4    1  0.5640637E-004  0.6500000E+04  0.7818608E-02  0.7223770E-01
         52   -1    0    0    0    0  0.00000000000E+00  0.00000000000E+00  0.64930732323E+04  0.65000000000E+04  0.30000000000E+03 0. -1.
        -52   -1    0    0    0    0 -0.00000000000E+00 -0.00000000000E+00 -0.64930732323E+04  0.65000000000E+04  0.30000000000E+03 0.  1.
     100001    1    1    2    0    0  0.77417932032E+03  0.87523670920E+03 -0.63923357885E+04  0.65000000000E+04  0.15050000000E+03 0.  1.
     100001    1    1    2    0    0 -0.77417932032E+03 -0.87523670920E+03  0.63923357885E+04  0.65000000000E+04  0.15050000000E+03 0. -1.
</event>
<event>
 4    1  0.5640637E-004  0.6500000E+04  0.7818608E-02  0.7223770E-01
         52   -1    0    0    0    0  0.00000000000E+00  0.00000000000E+00  0.64930732323E+04  0.65000000000E+04  0.30000000000E+03 0.  1.
        -52   -1    0    0    0    0 -0.00000000000E+00 -0.00000000000E+00 -0.64930732323E+04  0.65000000000E+04  0.30000000000E+03 0. -1.
     100001    1    1    2    0    0  0.44150085461E+03 -0.64534039880E+04  0.62129197037E+03  0.65000000000E+04  0.15050000000E+03 0.  1.
     100001    1    1    2    0    0 -0.44150085461E+03  0.64534039880E+04 -0.62129197037E+03  0.65000000000E+04  0.15050000000E+03 0. -1.
</event>
<event>
 4    1  0.5640637E-004  0.6500000E+04  0.7818608E-02  0.7223770E-01
         52   -1    0    0    0    0  0.00000000000E+00  0.00000000000E+00  0.64930732323E+04  0.65000000000E+04  0.30000000000E+03 0.  1.
        -52   -1    0    0    0    0 -0.00000000000E+00 -0.00000000000E+00 -0.64930732323E+04  0.65000000000E+04  0.30000000000E+03 0.  1.
     100001    1    1    2    0    0 -0.53647198453E+01  0.30176516383E+03 -0.64912447771E+04  0.65000000000E+04  0.15050000000E+03 0.  1.
     100001    1    1    2    0    0  0.53647198453E+01 -0.30176516383E+03  0.64912447771E+04  0.65000000000E+04  0.15050000000E+03 0.  1.
</event>
<event>
 4    1  0.5640637E-004  0.6500000E+04  0.7818608E-02  0.7223770E-01
         52   -1    0    0    0    0  0.00000000000E+00  0.00000000000E+00  0.64930732323E+04  0.65000000000E+04  0.30000000000E+03 0. -1.
        -52   -1    0    0    0    0 -0.00000000000E+00 -0.00000000000E+00 -0.64930732323E+04  0.65000000000E+04  0.30000000000E+03 0.  1.
     100001    1    1    2    0    0 -0.71847258356E+03  0.71550919729E+03 -0.64186597889E+04  0.65000000000E+04  0.15050000000E+03 0.  1.
     100001    1    1    2    0    0  0.71847258356E+03 -0.71550919729E+03  0.64186597889E+04  0.65000000000E+04  0.15050000000E+03 0. -1.
</event>
<event>
 4    1  0.5640637E-004  0.6500000E+04  0.7818608E-02  0.7223770E-01
         52   -1    0    0    0    0  0.00000000000E+00  0.00000000000E+00  0.64930732323E+04  0.65000000000E+04  0.30000000000E+03 0. -1.
        -52   -1    0    0    0    0 -0.00000000000E+00 -0.00000000000E+00 -0.64930732323E+04  0.65000000000E+04  0.30000000000E+03 0.  1.
     100001    1    1    2    0    0 -0.38012618837E+03 -0.10502197866E+02 -0.64871213596E+04  0.65000000000E+04  0.15050000000E+03 0.  1.
     100001    1    1    2    0    0  0.38012618837E+03  0.10502197866E+02  0.64871213596E+04  0.65000000000E+04  0.15050000000E+03 0. -1.
</event>
<event>
 4    1  0.5640637E-004  0.6500000E+04  0.7818608E-02  0.7223770E-01
         52   -1    0    0    0    0  0.00000000000E+00  0.00000000000E+00  0.64930732323E+04  0.65000000000E+04  0.30000000000E+03 0.  1.
        -52   -1    0    0    0    0 -0.00000000000E+00 -0.00000000000E+00 -0.64930732323E+04  0.65000000000E+04  0.30000000000E+03 0. -1.
     100001    1    1    2    0    0  0.71262849050E+03  0.10444351985E+03 -0.64582197188E+04  0.65000000000E+04  0.15050000000E+03 0. -1.
     100001    1    1    2    0    0 -0.71262849050E+03 -0.10444351985E+03  0.64582197188E+04  0.65000000000E+04  0.15050000000E+03 0.  1.
</event>
<event>
 4    1  0.5640637E-004  0.6500000E+04  0.7818608E-02  0.7223770E-01
         52   -1    0    0    0    0  0.00000000000E+00  0.00000000000E+00  0.64930732323E+04  0.65000000000E+04  0.30000000000E+03 0.  1.
        -52   -1    0    0    0    0 -0.00000000000E+00 -0.00000000000E+00 -0.64930732323E+04  0.65000000000E+04  0.30000000000E+03 0. -1.
     100001    1    1    2    0    0 -0.28493862919E+04 -0.18056714023E+04 -0.55540884308E+04  0.65000000000E+04  0.15050000000E+03 0. -1.
     100001    1    1    2    0    0  0.28493862919E+04  0.18056714023E+04  0.55540884308E+04  0.65000000000E+04  0.15050000000E+03 0.  1.
</event>
<event>
 4    1  0.5640637E-004  0.6500000E+04  0.7818608E-02  0.7223770E-01
         52   -1    0    0    0    0  0.00000000000E+00  0.00000000000E+00  0.64930732323E+04  0.65000000000E+04  0.30000000000E+03 0.  1.
        -52   -1    0    0    0    0 -0.00000000000E+00 -0.00000000000E+00 -0.64930732323E+04  0.65000000000E+04  0.30000000000E+03 0.  1.
     100001    1    1    2    0    0 -0.54440679125E+02 -0.31116680863E+02  0.64979548871E+04  0.65000000000E+04  0.15050000000E+03 0.  1.
     100001    1    1    2    0    0  0.54440679125E+02  0.31116680863E+02 -0.64979548871E+04  0.65000000000E+04  0.15050000000E+03 0.  1.
</event>
<event>
 4    1  0.5640637E-004  0.6500000E+04  0.7818608E-02  0.7223770E-01
         52   -1    0    0    0    0  0.00000000000E+00  0.00000000000E+00  0.64930732323E+04  0.65000000000E+04  0.30000000000E+03 0.  1.
        -52   -1    0    0    0    0 -0.00000000000E+00 -0.00000000000E+00 -0.64930732323E+04  0.65000000000E+04  0.30000000000E+03 0.  1.
     100001    1    1    2    0    0 -0.23027689457E+03  0.14002391897E+03  0.64926662939E+04  0.65000000000E+04  0.15050000000E+03 0.  1.
     100001    1    1    2    0    0  0.23027689457E+03 -0.14002391897E+03 -0.64926662939E+04  0.65000000000E+04  0.15050000000E+03 0.  1.
</event>
<event>
 4    1  0.5640637E-004  0.6500000E+04  0.7818608E-02  0.7223770E-01
         52   -1    0    0    0    0  0.00000000000E+00  0.00000000000E+00  0.64930732323E+04  0.65000000000E+04  0.30000000000E+03 0. -1.
        -52   -1    0    0    0    0 -0.00000000000E+00 -0.00000000000E+00 -0.64930732323E+04  0.65000000000E+04  0.30000000000E+03 0.  1.
     100001    1    1    2    0    0  0.70148636371E+03  0.23311973608E+04  0.60250133192E+04  0.65000000000E+04  0.15050000000E+03 0. -1.
     100001    1    1    2    0    0 -0.70148636371E+03 -0.23311973608E+04 -0.60250133192E+04  0.65000000000E+04  0.15050000000E+03 0.  1.
</event>
<event>
 4    1  0.5640637E-004  0.6500000E+04  0.7818608E-02  0.7223770E-01
         52   -1    0    0    0    0  0.00000000000E+00  0.00000000000E+00  0.64930732323E+04  0.65000000000E+04  0.30000000000E+03 0. -1.
        -52   -1    0    0    0    0 -0.00000000000E+00 -0.00000000000E+00 -0.64930732323E+04  0.65000000000E+04  0.30000000000E+03 0.  1.
     100001    1    1    2    0    0 -0.27458287271E+04 -0.11467061937E+04 -0.57769229921E+04  0.65000000000E+04  0.15050000000E+03 0.  1.
     100001    1    1    2    0    0  0.27458287271E+04  0.11467061937E+04  0.57769229921E+04  0.65000000000E+04  0.15050000000E+03 0. -1.
</event>
<event>
 4    1  0.5640637E-004  0.6500000E+04  0.7818608E-02  0.7223770E-01
         52   -1    0    0    0    0  0.00000000000E+00  0.00000000000E+00  0.64930732323E+04  0.65000000000E+04  0.30000000000E+03 0. -1.
        -52   -1    0    0    0    0 -0.00000000000E+00 -0.00000000000E+00 -0.64930732323E+04  0.65000000000E+04  0.30000000000E+03 0.  1.
     100001    1    1    2    0    0 -0.14080645808E+04  0.51770595757E+02  0.63436601179E+04  0.65000000000E+04  0.15050000000E+03 0. -1.
     100001    1    1    2    0    0  0.14080645808E+04 -0.51770595757E+02 -0.63436601179E+04  0.65000000000E+04  0.15050000000E+03 0.  1.
</event>
<event>
 4    1  0.5640637E-004  0.6500000E+04  0.7818608E-02  0.7223770E-01
         52   -1    0    0    0    0  0.00000000000E+00  0.00000000000E+00  0.64930732323E+04  0.65000000000E+04  0.30000000000E+03 0. -1.
        -52   -1    0    0    0    0 -0.00000000000E+00 -0.00000000000E+00 -0.64930732323E+04  0.65000000000E+04  0.30000000000E+03 0.  1.
     100001    1    1    2    0    0  0.50389035426E+03 -0.37111549439E+03 -0.64680536138E+04  0.65000000000E+04  0.15050000000E+03 0.  1.
     100001    1    1    2    0    0 -0.50389035426E+03  0.37111549439E+03  0.64680536138E+04  0.65000000000E+04  0.15050000000E+03 0. -1.
</event>
<event>
 4    1  0.5640637E-004  0.6500000E+04  0.7818608E-02  0.7223770E-01
         52   -1    0    0    0    0  0.00000000000E+00  0.00000000000E+00  0.64930732323E+04  0.65000000000E+04  0.30000000000E+03 0.  1.
        -52   -1    0    0    0    0 -0.00000000000E+00 -0.00000000000E+00 -0.64930732323E+04  0.65000000000E+04  0.30000000000E+03 0.  1.
     100001    1    1    2    0    0  0.15802603792E+03 -0.15812762050E+03  0.64944109184E+04  0.65000000000E+04  0.15050000000E+03 0.  1.
     100001    1    1    2    0    0 -0.15802603792E+03  0.15812762050E+03 -0.64944109184E+04  0.65000000000E+04  0.15050000000E+03 0.  1.
</event>
<event>
 4    1  0.5640637E-004  0.6500000E+04  0.7818608E-02  0.7223770E-01
         52   -1    0    0    0    0  0.00000000000E+00  0.00000000000E+00  0.64930732323E+04  0.65000000000E+04  0.30000000000E+03 0.  1.
        -52   -1    0    0    0    0 -0.00000000000E+00 -0.00000000000E+00 -0.64930732323E+04  0.65000000000E+04  0.30000000000E+03 0. -1.
     100001    1    1    2    0    0  0.39030472293E+04 -0.51949180474E+04  0.79990976856E+02  0.65000000000E+04  0.15050000000E+03 0.  1.
     100001    1    1    2    0    0 -0.39030472293E+04  0.51949180474E+04 -0.79990976856E+02  0.65000000000E+04  0.15050000000E+03 0. -1.
</event>
<event>
 4    1  0.5640637E-004  0.6500000E+04  0.7818608E-02  0.7223770E-01
         52   -1    0    0    0    0  0.00000000000E+00  0.00000000000E+00  0.64930732323E+04  0.65000000000E+04  0.30000000000E+03 0. -1.
        -52   -1    0    0    0    0 -0.00000000000E+00 -0.00000000000E+00 -0.64930732323E+04  0.65000000000E+04  0.30000000000E+03 0.  1.
     100001    1    1    2    0    0 -0.93289215157E+03 -0.11838469780E+04  0.63210417113E+04  0.65000000000E+04  0.15050000000E+03 0. -1.
     100001    1    1    2    0    0  0.93289215157E+03  0.11838469780E+04 -0.63210417113E+04  0.65000000000E+04  0.15050000000E+03 0.  1.
</event>
<event>
 4    1  0.8763549E-004  0.6500000E+04  0.7818608E-02  0.7223770E-01
         52   -1    0    0    0    0  0.00000000000E+00  0.00000000000E+00  0.64930732323E+04  0.65000000000E+04  0.30000000000E+03 0.  1.
        -52   -1    0    0    0    0 -0.00000000000E+00 -0.00000000000E+00 -0.64930732323E+04  0.65000000000E+04  0.30000000000E+03 0.  1.
     100001    1    1    2    0    0  0.12488124296E+03 -0.51567654850E+02 -0.64968527151E+04  0.65000000000E+04  0.15050000000E+03 0.  1.
     100001    1    1    2    0    0 -0.12488124296E+03  0.51567654850E+02  0.64968527151E+04  0.65000000000E+04  0.15050000000E+03 0.  1.
</event>
<event>
 4    1  0.5640637E-004  0.6500000E+04  0.7818608E-02  0.7223770E-01
         52   -1    0    0    0    0  0.00000000000E+00  0.00000000000E+00  0.64930732323E+04  0.65000000000E+04  0.30000000000E+03 0. -1.
        -52   -1    0    0    0    0 -0.00000000000E+00 -0.00000000000E+00 -0.64930732323E+04  0.65000000000E+04  0.30000000000E+03 0.  1.
     100001    1    1    2    0    0  0.17588564782E+02 -0.61674272625E+03 -0.64689001231E+04  0.65000000000E+04  0.15050000000E+03 0.  1.
     100001    1    1    2    0    0 -0.17588564782E+02  0.61674272625E+03  0.64689001231E+04  0.65000000000E+04  0.15050000000E+03 0. -1.
</event>
<event>
 4    1  0.5640637E-004  0.6500000E+04  0.7818608E-02  0.7223770E-01
         52   -1    0    0    0    0  0.00000000000E+00  0.00000000000E+00  0.64930732323E+04  0.65000000000E+04  0.30000000000E+03 0. -1.
        -52   -1    0    0    0    0 -0.00000000000E+00 -0.00000000000E+00 -0.64930732323E+04  0.65000000000E+04  0.30000000000E+03 0.  1.
     100001    1    1    2    0    0  0.49184874075E+04 -0.28760264373E+04  0.31247885216E+04  0.65000000000E+04  0.15050000000E+03 0. -1.
     100001    1    1    2    0    0 -0.49184874075E+04  0.28760264373E+04 -0.31247885216E+04  0.65000000000E+04  0.15050000000E+03 0.  1.
</event>
<event>
 4    1  0.5640637E-004  0.6500000E+04  0.7818608E-02  0.7223770E-01
         52   -1    0    0    0    0  0.00000000000E+00  0.00000000000E+00  0.64930732323E+04  0.65000000000E+04  0.30000000000E+03 0.  1.
        -52   -1    0    0    0    0 -0.00000000000E+00 -0.00000000000E+00 -0.64930732323E+04  0.65000000000E+04  0.30000000000E+03 0. -1.
     100001    1    1    2    0    0 -0.75329277767E+03 -0.12501429336E+03 -0.64532372626E+04  0.65000000000E+04  0.15050000000E+03 0. -1.
     100001    1    1    2    0    0  0.75329277767E+03  0.12501429336E+03  0.64532372626E+04  0.65000000000E+04  0.15050000000E+03 0.  1.
</event>
<event>
 4    1  0.5640637E-004  0.6500000E+04  0.7818608E-02  0.7223770E-01
         52   -1    0    0    0    0  0.00000000000E+00  0.00000000000E+00  0.64930732323E+04  0.65000000000E+04  0.30000000000E+03 0. -1.
        -52   -1    0    0    0    0 -0.00000000000E+00 -0.00000000000E+00 -0.64930732323E+04  0.65000000000E+04  0.30000000000E+03 0.  1.
     100001    1    1    2    0    0 -0.13462303359E+03 -0.63658134608E+03 -0.64656005582E+04  0.65000000000E+04  0.15050000000E+03 0.  1.
     100001    1    1    2    0    0  0.13462303359E+03  0.63658134608E+03  0.64656005582E+04  0.65000000000E+04  0.15050000000E+03 0. -1.
</event>
<event>
 4    1  0.5640637E-004  0.6500000E+04  0.7818608E-02  0.7223770E-01
         52   -1    0    0    0    0  0.00000000000E+00  0.00000000000E+00  0.64930732323E+04  0.65000000000E+04  0.30000000000E+03 0.  1.
        -52   -1    0    0    0    0 -0.00000000000E+00 -0.00000000000E+00 -0.64930732323E+04  0.65000000000E+04  0.30000000000E+03 0. -1.
     100001    1    1    2    0    0 -0.16906275944E+03 -0.61901771227E+03 -0.64664970892E+04  0.65000000000E+04  0.15050000000E+03 0. -1.
     100001    1    1    2    0    0  0.16906275944E+03  0.61901771227E+03  0.64664970892E+04  0.65000000000E+04  0.15050000000E+03 0.  1.
</event>
<event>
 4    1  0.5640637E-004  0.6500000E+04  0.7818608E-02  0.7223770E-01
         52   -1    0    0    0    0  0.00000000000E+00  0.00000000000E+00  0.64930732323E+04  0.65000000000E+04  0.30000000000E+03 0.  1.
        -52   -1    0    0    0    0 -0.00000000000E+00 -0.00000000000E+00 -0.64930732323E+04  0.65000000000E+04  0.30000000000E+03 0. -1.
     100001    1    1    2    0    0 -0.51541332436E+03 -0.32833985510E+03 -0.64694583850E+04  0.65000000000E+04  0.15050000000E+03 0. -1.
     100001    1    1    2    0    0  0.51541332436E+03  0.32833985510E+03  0.64694583850E+04  0.65000000000E+04  0.15050000000E+03 0.  1.
</event>
<event>
 4    1  0.5640637E-004  0.6500000E+04  0.7818608E-02  0.7223770E-01
         52   -1    0    0    0    0  0.00000000000E+00  0.00000000000E+00  0.64930732323E+04  0.65000000000E+04  0.30000000000E+03 0.  1.
        -52   -1    0    0    0    0 -0.00000000000E+00 -0.00000000000E+00 -0.64930732323E+04  0.65000000000E+04  0.30000000000E+03 0.  1.
     100001    1    1    2    0    0  0.51687711259E+03  0.45402521420E+03 -0.64617372978E+04  0.65000000000E+04  0.15050000000E+03 0.  1.
     100001    1    1    2    0    0 -0.51687711259E+03 -0.45402521420E+03  0.64617372978E+04  0.65000000000E+04  0.15050000000E+03 0.  1.
</event>
<event>
 4    1  0.5640637E-004  0.6500000E+04  0.7818608E-02  0.7223770E-01
         52   -1    0    0    0    0  0.00000000000E+00  0.00000000000E+00  0.64930732323E+04  0.65000000000E+04  0.30000000000E+03 0. -1.
        -52   -1    0    0    0    0 -0.00000000000E+00 -0.00000000000E+00 -0.64930732323E+04  0.65000000000E+04  0.30000000000E+03 0.  1.
     100001    1    1    2    0    0  0.60847602161E+03 -0.23730634074E+04 -0.60187770141E+04  0.65000000000E+04  0.15050000000E+03 0.  1.
     100001    1    1    2    0    0 -0.60847602161E+03  0.23730634074E+04  0.60187770141E+04  0.65000000000E+04  0.15050000000E+03 0. -1.
</event>
<event>
 4    1  0.5640637E-004  0.6500000E+04  0.7818608E-02  0.7223770E-01
         52   -1    0    0    0    0  0.00000000000E+00  0.00000000000E+00  0.64930732323E+04  0.65000000000E+04  0.30000000000E+03 0.  1.
        -52   -1    0    0    0    0 -0.00000000000E+00 -0.00000000000E+00 -0.64930732323E+04  0.65000000000E+04  0.30000000000E+03 0. -1.
     100001    1    1    2    0    0 -0.57082046836E+03 -0.12773763643E+02 -0.64731252555E+04  0.65000000000E+04  0.15050000000E+03 0. -1.
     100001    1    1    2    0    0  0.57082046836E+03  0.12773763643E+02  0.64731252555E+04  0.65000000000E+04  0.15050000000E+03 0.  1.
</event>
<event>
 4    1  0.5640637E-004  0.6500000E+04  0.7818608E-02  0.7223770E-01
         52   -1    0    0    0    0  0.00000000000E+00  0.00000000000E+00  0.64930732323E+04  0.65000000000E+04  0.30000000000E+03 0.  1.
        -52   -1    0    0    0    0 -0.00000000000E+00 -0.00000000000E+00 -0.64930732323E+04  0.65000000000E+04  0.30000000000E+03 0. -1.
     100001    1    1    2    0    0 -0.19545267686E+04  0.38376733083E+04  0.48661523239E+04  0.65000000000E+04  0.15050000000E+03 0.  1.
     100001    1    1    2    0    0  0.19545267686E+04 -0.38376733083E+04 -0.48661523239E+04  0.65000000000E+04  0.15050000000E+03 0. -1.
</event>
<event>
 4    1  0.5640637E-004  0.6500000E+04  0.7818608E-02  0.7223770E-01
         52   -1    0    0    0    0  0.00000000000E+00  0.00000000000E+00  0.64930732323E+04  0.65000000000E+04  0.30000000000E+03 0.  1.
        -52   -1    0    0    0    0 -0.00000000000E+00 -0.00000000000E+00 -0.64930732323E+04  0.65000000000E+04  0.30000000000E+03 0. -1.
     100001    1    1    2    0    0  0.47356054345E+03  0.11434863255E+03 -0.64799702586E+04  0.65000000000E+04  0.15050000000E+03 0. -1.
     100001    1    1    2    0    0 -0.47356054345E+03 -0.11434863255E+03  0.64799702586E+04  0.65000000000E+04  0.15050000000E+03 0.  1.
</event>
<event>
 4    1  0.5640637E-004  0.6500000E+04  0.7818608E-02  0.7223770E-01
         52   -1    0    0    0    0  0.00000000000E+00  0.00000000000E+00  0.64930732323E+04  0.65000000000E+04  0.30000000000E+03 0.  1.
        -52   -1    0    0    0    0 -0.00000000000E+00 -0.00000000000E+00 -0.64930732323E+04  0.65000000000E+04  0.30000000000E+03 0. -1.
     100001    1    1    2    0    0 -0.62248374692E+04  0.62583834653E+03 -0.17570072841E+04  0.65000000000E+04  0.15050000000E+03 0. -1.
     100001    1    1    2    0    0  0.62248374692E+04 -0.62583834653E+03  0.17570072841E+04  0.65000000000E+04  0.15050000000E+03 0.  1.
</event>
<event>
 4    1  0.5640637E-004  0.6500000E+04  0.7818608E-02  0.7223770E-01
         52   -1    0    0    0    0  0.00000000000E+00  0.00000000000E+00  0.64930732323E+04  0.65000000000E+04  0.30000000000E+03 0.  1.
        -52   -1    0    0    0    0 -0.00000000000E+00 -0.00000000000E+00 -0.64930732323E+04  0.65000000000E+04  0.30000000000E+03 0. -1.
     100001    1    1    2    0    0 -0.90992384975E+03 -0.76114875710E+03 -0.63890563393E+04  0.65000000000E+04  0.15050000000E+03 0. -1.
     100001    1    1    2    0    0  0.90992384975E+03  0.76114875710E+03  0.63890563393E+04  0.65000000000E+04  0.15050000000E+03 0.  1.
</event>
<event>
 4    1  0.5640637E-004  0.6500000E+04  0.7818608E-02  0.7223770E-01
         52   -1    0    0    0    0  0.00000000000E+00  0.00000000000E+00  0.64930732323E+04  0.65000000000E+04  0.30000000000E+03 0. -1.
        -52   -1    0    0    0    0 -0.00000000000E+00 -0.00000000000E+00 -0.64930732323E+04  0.65000000000E+04  0.30000000000E+03 0. -1.
     100001    1    1    2    0    0 -0.27476943312E+03 -0.66651925043E+03  0.64581424262E+04  0.65000000000E+04  0.15050000000E+03 0. -1.
     100001    1    1    2    0    0  0.27476943312E+03  0.66651925043E+03 -0.64581424262E+04  0.65000000000E+04  0.15050000000E+03 0. -1.
</event>
<event>
 4    1  0.5640637E-004  0.6500000E+04  0.7818608E-02  0.7223770E-01
         52   -1    0    0    0    0  0.00000000000E+00  0.00000000000E+00  0.64930732323E+04  0.65000000000E+04  0.30000000000E+03 0.  1.
        -52   -1    0    0    0    0 -0.00000000000E+00 -0.00000000000E+00 -0.64930732323E+04  0.65000000000E+04  0.30000000000E+03 0. -1.
     100001    1    1    2    0    0 -0.45409623501E+03 -0.46453702474E+03  0.64657058170E+04  0.65000000000E+04  0.15050000000E+03 0.  1.
     100001    1    1    2    0    0  0.45409623501E+03  0.46453702474E+03 -0.64657058170E+04  0.65000000000E+04  0.15050000000E+03 0. -1.
</event>
<event>
 4    1  0.5640637E-004  0.6500000E+04  0.7818608E-02  0.7223770E-01
         52   -1    0    0    0    0  0.00000000000E+00  0.00000000000E+00  0.64930732323E+04  0.65000000000E+04  0.30000000000E+03 0. -1.
        -52   -1    0    0    0    0 -0.00000000000E+00 -0.00000000000E+00 -0.64930732323E+04  0.65000000000E+04  0.30000000000E+03 0.  1.
     100001    1    1    2    0    0  0.15854729856E+03 -0.50701421187E+03 -0.64765074765E+04  0.65000000000E+04  0.15050000000E+03 0.  1.
     100001    1    1    2    0    0 -0.15854729856E+03  0.50701421187E+03  0.64765074765E+04  0.65000000000E+04  0.15050000000E+03 0. -1.
</event>
<event>
 4    1  0.5640637E-004  0.6500000E+04  0.7818608E-02  0.7223770E-01
         52   -1    0    0    0    0  0.00000000000E+00  0.00000000000E+00  0.64930732323E+04  0.65000000000E+04  0.30000000000E+03 0. -1.
        -52   -1    0    0    0    0 -0.00000000000E+00 -0.00000000000E+00 -0.64930732323E+04  0.65000000000E+04  0.30000000000E+03 0.  1.
     100001    1    1    2    0    0 -0.30417317771E+04 -0.22652341848E+04 -0.52767349407E+04  0.65000000000E+04  0.15050000000E+03 0.  1.
     100001    1    1    2    0    0  0.30417317771E+04  0.22652341848E+04  0.52767349407E+04  0.65000000000E+04  0.15050000000E+03 0. -1.
</event>
<event>
 4    1  0.5640637E-004  0.6500000E+04  0.7818608E-02  0.7223770E-01
         52   -1    0    0    0    0  0.00000000000E+00  0.00000000000E+00  0.64930732323E+04  0.65000000000E+04  0.30000000000E+03 0. -1.
        -52   -1    0    0    0    0 -0.00000000000E+00 -0.00000000000E+00 -0.64930732323E+04  0.65000000000E+04  0.30000000000E+03 0.  1.
     100001    1    1    2    0    0 -0.81892262988E+03 -0.31147840252E+04  0.56440088548E+04  0.65000000000E+04  0.15050000000E+03 0. -1.
     100001    1    1    2    0    0  0.81892262988E+03  0.31147840252E+04 -0.56440088548E+04  0.65000000000E+04  0.15050000000E+03 0.  1.
</event>
<event>
 4    1  0.5640637E-004  0.6500000E+04  0.7818608E-02  0.7223770E-01
         52   -1    0    0    0    0  0.00000000000E+00  0.00000000000E+00  0.64930732323E+04  0.65000000000E+04  0.30000000000E+03 0. -1.
        -52   -1    0    0    0    0 -0.00000000000E+00 -0.00000000000E+00 -0.64930732323E+04  0.65000000000E+04  0.30000000000E+03 0.  1.
     100001    1    1    2    0    0  0.37761902871E+04  0.34867747120E+04  0.39761965210E+04  0.65000000000E+04  0.15050000000E+03 0. -1.
     100001    1    1    2    0    0 -0.37761902871E+04 -0.34867747120E+04 -0.39761965210E+04  0.65000000000E+04  0.15050000000E+03 0.  1.
</event>
<event>
 4    1  0.5640637E-004  0.6500000E+04  0.7818608E-02  0.7223770E-01
         52   -1    0    0    0    0  0.00000000000E+00  0.00000000000E+00  0.64930732323E+04  0.65000000000E+04  0.30000000000E+03 0. -1.
        -52   -1    0    0    0    0 -0.00000000000E+00 -0.00000000000E+00 -0.64930732323E+04  0.65000000000E+04  0.30000000000E+03 0.  1.
     100001    1    1    2    0    0  0.64220099675E+03 -0.72294219518E+01  0.64664422494E+04  0.65000000000E+04  0.15050000000E+03 0. -1.
     100001    1    1    2    0    0 -0.64220099675E+03  0.72294219518E+01 -0.64664422494E+04  0.65000000000E+04  0.15050000000E+03 0.  1.
</event>
<event>
 4    1  0.5640637E-004  0.6500000E+04  0.7818608E-02  0.7223770E-01
         52   -1    0    0    0    0  0.00000000000E+00  0.00000000000E+00  0.64930732323E+04  0.65000000000E+04  0.30000000000E+03 0. -1.
        -52   -1    0    0    0    0 -0.00000000000E+00 -0.00000000000E+00 -0.64930732323E+04  0.65000000000E+04  0.30000000000E+03 0.  1.
     100001    1    1    2    0    0 -0.39453464293E+04 -0.16293174838E+04 -0.48996852796E+04  0.65000000000E+04  0.15050000000E+03 0.  1.
     100001    1    1    2    0    0  0.39453464293E+04  0.16293174838E+04  0.48996852796E+04  0.65000000000E+04  0.15050000000E+03 0. -1.
</event>
<event>
 4    1  0.8920966E-004  0.6500000E+04  0.7818608E-02  0.7223770E-01
         52   -1    0    0    0    0  0.00000000000E+00  0.00000000000E+00  0.64930732323E+04  0.65000000000E+04  0.30000000000E+03 0.  1.
        -52   -1    0    0    0    0 -0.00000000000E+00 -0.00000000000E+00 -0.64930732323E+04  0.65000000000E+04  0.30000000000E+03 0. -1.
     100001    1    1    2    0    0 -0.52523332684E+02 -0.49960794138E+01 -0.64980432508E+04  0.65000000000E+04  0.15050000000E+03 0. -1.
     100001    1    1    2    0    0  0.52523332684E+02  0.49960794138E+01  0.64980432508E+04  0.65000000000E+04  0.15050000000E+03 0.  1.
</event>
<event>
 4    1  0.5640637E-004  0.6500000E+04  0.7818608E-02  0.7223770E-01
         52   -1    0    0    0    0  0.00000000000E+00  0.00000000000E+00  0.64930732323E+04  0.65000000000E+04  0.30000000000E+03 0. -1.
        -52   -1    0    0    0    0 -0.00000000000E+00 -0.00000000000E+00 -0.64930732323E+04  0.65000000000E+04  0.30000000000E+03 0.  1.
     100001    1    1    2    0    0 -0.18039787860E+04  0.15141671776E+04 -0.60564270034E+04  0.65000000000E+04  0.15050000000E+03 0.  1.
     100001    1    1    2    0    0  0.18039787860E+04 -0.15141671776E+04  0.60564270034E+04  0.65000000000E+04  0.15050000000E+03 0. -1.
</event>
<event>
 4    1  0.5640637E-004  0.6500000E+04  0.7818608E-02  0.7223770E-01
         52   -1    0    0    0    0  0.00000000000E+00  0.00000000000E+00  0.64930732323E+04  0.65000000000E+04  0.30000000000E+03 0.  1.
        -52   -1    0    0    0    0 -0.00000000000E+00 -0.00000000000E+00 -0.64930732323E+04  0.65000000000E+04  0.30000000000E+03 0. -1.
     100001    1    1    2    0    0  0.22911530379E+04  0.31261989746E+03  0.60729100361E+04  0.65000000000E+04  0.15050000000E+03 0.  1.
     100001    1    1    2    0    0 -0.22911530379E+04 -0.31261989746E+03 -0.60729100361E+04  0.65000000000E+04  0.15050000000E+03 0. -1.
</event>
<event>
 4    1  0.5640637E-004  0.6500000E+04  0.7818608E-02  0.7223770E-01
         52   -1    0    0    0    0  0.00000000000E+00  0.00000000000E+00  0.64930732323E+04  0.65000000000E+04  0.30000000000E+03 0.  1.
        -52   -1    0    0    0    0 -0.00000000000E+00 -0.00000000000E+00 -0.64930732323E+04  0.65000000000E+04  0.30000000000E+03 0. -1.
     100001    1    1    2    0    0 -0.95050853213E+03 -0.62458531715E+03  0.63979509581E+04  0.65000000000E+04  0.15050000000E+03 0.  1.
     100001    1    1    2    0    0  0.95050853213E+03  0.62458531715E+03 -0.63979509581E+04  0.65000000000E+04  0.15050000000E+03 0. -1.
</event>
<event>
 4    1  0.5640637E-004  0.6500000E+04  0.7818608E-02  0.7223770E-01
         52   -1    0    0    0    0  0.00000000000E+00  0.00000000000E+00  0.64930732323E+04  0.65000000000E+04  0.30000000000E+03 0. -1.
        -52   -1    0    0    0    0 -0.00000000000E+00 -0.00000000000E+00 -0.64930732323E+04  0.65000000000E+04  0.30000000000E+03 0.  1.
     100001    1    1    2    0    0  0.39999670339E+04 -0.48771185282E+04 -0.15624750686E+04  0.65000000000E+04  0.15050000000E+03 0.  1.
     100001    1    1    2    0    0 -0.39999670339E+04  0.48771185282E+04  0.15624750686E+04  0.65000000000E+04  0.15050000000E+03 0. -1.
</event>
<event>
 4    1  0.5640637E-004  0.6500000E+04  0.7818608E-02  0.7223770E-01
         52   -1    0    0    0    0  0.00000000000E+00  0.00000000000E+00  0.64930732323E+04  0.65000000000E+04  0.30000000000E+03 0.  1.
        -52   -1    0    0    0    0 -0.00000000000E+00 -0.00000000000E+00 -0.64930732323E+04  0.65000000000E+04  0.30000000000E+03 0. -1.
     100001    1    1    2    0    0 -0.75465896162E+03  0.15066647699E+04  0.62759701141E+04  0.65000000000E+04  0.15050000000E+03 0.  1.
     100001    1    1    2    0    0  0.75465896162E+03 -0.15066647699E+04 -0.62759701141E+04  0.65000000000E+04  0.15050000000E+03 0. -1.
</event>
<event>
 4    1  0.5640637E-004  0.6500000E+04  0.7818608E-02  0.7223770E-01
         52   -1    0    0    0    0  0.00000000000E+00  0.00000000000E+00  0.64930732323E+04  0.65000000000E+04  0.30000000000E+03 0.  1.
        -52   -1    0    0    0    0 -0.00000000000E+00 -0.00000000000E+00 -0.64930732323E+04  0.65000000000E+04  0.30000000000E+03 0. -1.
     100001    1    1    2    0    0 -0.55179303177E+03  0.29407624512E+03  0.64681058558E+04  0.65000000000E+04  0.15050000000E+03 0.  1.
     100001    1    1    2    0    0  0.55179303177E+03 -0.29407624512E+03 -0.64681058558E+04  0.65000000000E+04  0.15050000000E+03 0. -1.
</event>
<event>
 4    1  0.5640637E-004  0.6500000E+04  0.7818608E-02  0.7223770E-01
         52   -1    0    0    0    0  0.00000000000E+00  0.00000000000E+00  0.64930732323E+04  0.65000000000E+04  0.30000000000E+03 0. -1.
        -52   -1    0    0    0    0 -0.00000000000E+00 -0.00000000000E+00 -0.64930732323E+04  0.65000000000E+04  0.30000000000E+03 0.  1.
     100001    1    1    2    0    0  0.19916373859E+03  0.36476571578E+03 -0.64849540883E+04  0.65000000000E+04  0.15050000000E+03 0.  1.
     100001    1    1    2    0    0 -0.19916373859E+03 -0.36476571578E+03  0.64849540883E+04  0.65000000000E+04  0.15050000000E+03 0. -1.
</event>
<event>
 4    1  0.5640637E-004  0.6500000E+04  0.7818608E-02  0.7223770E-01
         52   -1    0    0    0    0  0.00000000000E+00  0.00000000000E+00  0.64930732323E+04  0.65000000000E+04  0.30000000000E+03 0.  1.
        -52   -1    0    0    0    0 -0.00000000000E+00 -0.00000000000E+00 -0.64930732323E+04  0.65000000000E+04  0.30000000000E+03 0. -1.
     100001    1    1    2    0    0 -0.56348212164E+04  0.22938892334E+04  0.22834648659E+04  0.65000000000E+04  0.15050000000E+03 0.  1.
     100001    1    1    2    0    0  0.56348212164E+04 -0.22938892334E+04 -0.22834648659E+04  0.65000000000E+04  0.15050000000E+03 0. -1.
</event>
<event>
 4    1  0.5640637E-004  0.6500000E+04  0.7818608E-02  0.7223770E-01
         52   -1    0    0    0    0  0.00000000000E+00  0.00000000000E+00  0.64930732323E+04  0.65000000000E+04  0.30000000000E+03 0.  1.
        -52   -1    0    0    0    0 -0.00000000000E+00 -0.00000000000E+00 -0.64930732323E+04  0.65000000000E+04  0.30000000000E+03 0. -1.
     100001    1    1    2    0    0  0.52949922478E+04 -0.91916573470E+03  0.36531549650E+04  0.65000000000E+04  0.15050000000E+03 0.  1.
     100001    1    1    2    0    0 -0.52949922478E+04  0.91916573470E+03 -0.36531549650E+04  0.65000000000E+04  0.15050000000E+03 0. -1.
</event>
<event>
 4    1  0.5640637E-004  0.6500000E+04  0.7818608E-02  0.7223770E-01
         52   -1    0    0    0    0  0.00000000000E+00  0.00000000000E+00  0.64930732323E+04  0.65000000000E+04  0.30000000000E+03 0.  1.
        -52   -1    0    0    0    0 -0.00000000000E+00 -0.00000000000E+00 -0.64930732323E+04  0.65000000000E+04  0.30000000000E+03 0. -1.
     100001    1    1    2    0    0 -0.27193144304E+04  0.12919488832E+04  0.57587799803E+04  0.65000000000E+04  0.15050000000E+03 0.  1.
     100001    1    1    2    0    0  0.27193144304E+04 -0.12919488832E+04 -0.57587799803E+04  0.65000000000E+04  0.15050000000E+03 0. -1.
</event>
<event>
 4    1  0.5640637E-004  0.6500000E+04  0.7818608E-02  0.7223770E-01
         52   -1    0    0    0    0  0.00000000000E+00  0.00000000000E+00  0.64930732323E+04  0.65000000000E+04  0.30000000000E+03 0.  1.
        -52   -1    0    0    0    0 -0.00000000000E+00 -0.00000000000E+00 -0.64930732323E+04  0.65000000000E+04  0.30000000000E+03 0. -1.
     100001    1    1    2    0    0 -0.17195482191E+04 -0.29476611116E+04  0.55300811606E+04  0.65000000000E+04  0.15050000000E+03 0.  1.
     100001    1    1    2    0    0  0.17195482191E+04  0.29476611116E+04 -0.55300811606E+04  0.65000000000E+04  0.15050000000E+03 0. -1.
</event>
<event>
 4    1  0.5640637E-004  0.6500000E+04  0.7818608E-02  0.7223770E-01
         52   -1    0    0    0    0  0.00000000000E+00  0.00000000000E+00  0.64930732323E+04  0.65000000000E+04  0.30000000000E+03 0. -1.
        -52   -1    0    0    0    0 -0.00000000000E+00 -0.00000000000E+00 -0.64930732323E+04  0.65000000000E+04  0.30000000000E+03 0.  1.
     100001    1    1    2    0    0  0.61202791423E+04  0.12961778109E+04 -0.17576848560E+04  0.65000000000E+04  0.15050000000E+03 0.  1.
     100001    1    1    2    0    0 -0.61202791423E+04 -0.12961778109E+04  0.17576848560E+04  0.65000000000E+04  0.15050000000E+03 0. -1.
</event>
<event>
 4    1  0.5640637E-004  0.6500000E+04  0.7818608E-02  0.7223770E-01
         52   -1    0    0    0    0  0.00000000000E+00  0.00000000000E+00  0.64930732323E+04  0.65000000000E+04  0.30000000000E+03 0. -1.
        -52   -1    0    0    0    0 -0.00000000000E+00 -0.00000000000E+00 -0.64930732323E+04  0.65000000000E+04  0.30000000000E+03 0.  1.
     100001    1    1    2    0    0 -0.65655632486E+02  0.37339323628E+03 -0.64871886499E+04  0.65000000000E+04  0.15050000000E+03 0.  1.
     100001    1    1    2    0    0  0.65655632486E+02 -0.37339323628E+03  0.64871886499E+04  0.65000000000E+04  0.15050000000E+03 0. -1.
</event>
<event>
 4    1  0.5640637E-004  0.6500000E+04  0.7818608E-02  0.7223770E-01
         52   -1    0    0    0    0  0.00000000000E+00  0.00000000000E+00  0.64930732323E+04  0.65000000000E+04  0.30000000000E+03 0.  1.
        -52   -1    0    0    0    0 -0.00000000000E+00 -0.00000000000E+00 -0.64930732323E+04  0.65000000000E+04  0.30000000000E+03 0. -1.
     100001    1    1    2    0    0  0.85171306681E+03  0.70600353819E+03 -0.64033970364E+04  0.65000000000E+04  0.15050000000E+03 0. -1.
     100001    1    1    2    0    0 -0.85171306681E+03 -0.70600353819E+03  0.64033970364E+04  0.65000000000E+04  0.15050000000E+03 0.  1.
</event>
<event>
 4    1  0.5640637E-004  0.6500000E+04  0.7818608E-02  0.7223770E-01
         52   -1    0    0    0    0  0.00000000000E+00  0.00000000000E+00  0.64930732323E+04  0.65000000000E+04  0.30000000000E+03 0. -1.
        -52   -1    0    0    0    0 -0.00000000000E+00 -0.00000000000E+00 -0.64930732323E+04  0.65000000000E+04  0.30000000000E+03 0.  1.
     100001    1    1    2    0    0 -0.49952839092E+03 -0.77871748829E+02  0.64785613470E+04  0.65000000000E+04  0.15050000000E+03 0. -1.
     100001    1    1    2    0    0  0.49952839092E+03  0.77871748829E+02 -0.64785613470E+04  0.65000000000E+04  0.15050000000E+03 0.  1.
</event>
<event>
 4    1  0.5640637E-004  0.6500000E+04  0.7818608E-02  0.7223770E-01
         52   -1    0    0    0    0  0.00000000000E+00  0.00000000000E+00  0.64930732323E+04  0.65000000000E+04  0.30000000000E+03 0. -1.
        -52   -1    0    0    0    0 -0.00000000000E+00 -0.00000000000E+00 -0.64930732323E+04  0.65000000000E+04  0.30000000000E+03 0.  1.
     100001    1    1    2    0    0  0.50644254385E+03 -0.16689718970E+04 -0.62598241594E+04  0.65000000000E+04  0.15050000000E+03 0.  1.
     100001    1    1    2    0    0 -0.50644254385E+03  0.16689718970E+04  0.62598241594E+04  0.65000000000E+04  0.15050000000E+03 0. -1.
</event>
<event>
 4    1  0.5640637E-004  0.6500000E+04  0.7818608E-02  0.7223770E-01
         52   -1    0    0    0    0  0.00000000000E+00  0.00000000000E+00  0.64930732323E+04  0.65000000000E+04  0.30000000000E+03 0. -1.
        -52   -1    0    0    0    0 -0.00000000000E+00 -0.00000000000E+00 -0.64930732323E+04  0.65000000000E+04  0.30000000000E+03 0.  1.
     100001    1    1    2    0    0 -0.20393047287E+04 -0.10143874188E+04 -0.60860170997E+04  0.65000000000E+04  0.15050000000E+03 0.  1.
     100001    1    1    2    0    0  0.20393047287E+04  0.10143874188E+04  0.60860170997E+04  0.65000000000E+04  0.15050000000E+03 0. -1.
</event>
<event>
 4    1  0.5640637E-004  0.6500000E+04  0.7818608E-02  0.7223770E-01
         52   -1    0    0    0    0  0.00000000000E+00  0.00000000000E+00  0.64930732323E+04  0.65000000000E+04  0.30000000000E+03 0.  1.
        -52   -1    0    0    0    0 -0.00000000000E+00 -0.00000000000E+00 -0.64930732323E+04  0.65000000000E+04  0.30000000000E+03 0. -1.
     100001    1    1    2    0    0  0.87478052164E+03 -0.71181139488E+02  0.64387143153E+04  0.65000000000E+04  0.15050000000E+03 0.  1.
     100001    1    1    2    0    0 -0.87478052164E+03  0.71181139488E+02 -0.64387143153E+04  0.65000000000E+04  0.15050000000E+03 0. -1.
</event>
<event>
 4    1  0.5640637E-004  0.6500000E+04  0.7818608E-02  0.7223770E-01
         52   -1    0    0    0    0  0.00000000000E+00  0.00000000000E+00  0.64930732323E+04  0.65000000000E+04  0.30000000000E+03 0.  1.
        -52   -1    0    0    0    0 -0.00000000000E+00 -0.00000000000E+00 -0.64930732323E+04  0.65000000000E+04  0.30000000000E+03 0. -1.
     100001    1    1    2    0    0  0.43951967680E+04  0.32389627703E+04  0.35240197634E+04  0.65000000000E+04  0.15050000000E+03 0.  1.
     100001    1    1    2    0    0 -0.43951967680E+04 -0.32389627703E+04 -0.35240197634E+04  0.65000000000E+04  0.15050000000E+03 0. -1.
</event>
<event>
 4    1  0.5640637E-004  0.6500000E+04  0.7818608E-02  0.7223770E-01
         52   -1    0    0    0    0  0.00000000000E+00  0.00000000000E+00  0.64930732323E+04  0.65000000000E+04  0.30000000000E+03 0.  1.
        -52   -1    0    0    0    0 -0.00000000000E+00 -0.00000000000E+00 -0.64930732323E+04  0.65000000000E+04  0.30000000000E+03 0. -1.
     100001    1    1    2    0    0  0.30409889415E+04 -0.35781160354E+04  0.44918617125E+04  0.65000000000E+04  0.15050000000E+03 0.  1.
     100001    1    1    2    0    0 -0.30409889415E+04  0.35781160354E+04 -0.44918617125E+04  0.65000000000E+04  0.15050000000E+03 0. -1.
</event>
<event>
 4    1  0.5640637E-004  0.6500000E+04  0.7818608E-02  0.7223770E-01
         52   -1    0    0    0    0  0.00000000000E+00  0.00000000000E+00  0.64930732323E+04  0.65000000000E+04  0.30000000000E+03 0. -1.
        -52   -1    0    0    0    0 -0.00000000000E+00 -0.00000000000E+00 -0.64930732323E+04  0.65000000000E+04  0.30000000000E+03 0. -1.
     100001    1    1    2    0    0  0.35203574725E+03  0.21740186507E+03 -0.64850718586E+04  0.65000000000E+04  0.15050000000E+03 0. -1.
     100001    1    1    2    0    0 -0.35203574725E+03 -0.21740186507E+03  0.64850718586E+04  0.65000000000E+04  0.15050000000E+03 0. -1.
</event>
<event>
 4    1  0.5640637E-004  0.6500000E+04  0.7818608E-02  0.7223770E-01
         52   -1    0    0    0    0  0.00000000000E+00  0.00000000000E+00  0.64930732323E+04  0.65000000000E+04  0.30000000000E+03 0.  1.
        -52   -1    0    0    0    0 -0.00000000000E+00 -0.00000000000E+00 -0.64930732323E+04  0.65000000000E+04  0.30000000000E+03 0. -1.
     100001    1    1    2    0    0 -0.24189402092E+04  0.21221421180E+04  0.56455815329E+04  0.65000000000E+04  0.15050000000E+03 0.  1.
     100001    1    1    2    0    0  0.24189402092E+04 -0.21221421180E+04 -0.56455815329E+04  0.65000000000E+04  0.15050000000E+03 0. -1.
</event>
<event>
 4    1  0.5640637E-004  0.6500000E+04  0.7818608E-02  0.7223770E-01
         52   -1    0    0    0    0  0.00000000000E+00  0.00000000000E+00  0.64930732323E+04  0.65000000000E+04  0.30000000000E+03 0.  1.
        -52   -1    0    0    0    0 -0.00000000000E+00 -0.00000000000E+00 -0.64930732323E+04  0.65000000000E+04  0.30000000000E+03 0. -1.
     100001    1    1    2    0    0  0.15019449844E+03 -0.35278628844E+03  0.64869355783E+04  0.65000000000E+04  0.15050000000E+03 0.  1.
     100001    1    1    2    0    0 -0.15019449844E+03  0.35278628844E+03 -0.64869355783E+04  0.65000000000E+04  0.15050000000E+03 0. -1.
</event>
<event>
 4    1  0.5640637E-004  0.6500000E+04  0.7818608E-02  0.7223770E-01
         52   -1    0    0    0    0  0.00000000000E+00  0.00000000000E+00  0.64930732323E+04  0.65000000000E+04  0.30000000000E+03 0.  1.
        -52   -1    0    0    0    0 -0.00000000000E+00 -0.00000000000E+00 -0.64930732323E+04  0.65000000000E+04  0.30000000000E+03 0. -1.
     100001    1    1    2    0    0  0.13530185302E+04  0.17567145250E+03 -0.63534109066E+04  0.65000000000E+04  0.15050000000E+03 0. -1.
     100001    1    1    2    0    0 -0.13530185302E+04 -0.17567145250E+03  0.63534109066E+04  0.65000000000E+04  0.15050000000E+03 0.  1.
</event>
<event>
 4    1  0.5640637E-004  0.6500000E+04  0.7818608E-02  0.7223770E-01
         52   -1    0    0    0    0  0.00000000000E+00  0.00000000000E+00  0.64930732323E+04  0.65000000000E+04  0.30000000000E+03 0.  1.
        -52   -1    0    0    0    0 -0.00000000000E+00 -0.00000000000E+00 -0.64930732323E+04  0.65000000000E+04  0.30000000000E+03 0. -1.
     100001    1    1    2    0    0 -0.17960094719E+04  0.20987230410E+04 -0.58819266677E+04  0.65000000000E+04  0.15050000000E+03 0. -1.
     100001    1    1    2    0    0  0.17960094719E+04 -0.20987230410E+04  0.58819266677E+04  0.65000000000E+04  0.15050000000E+03 0.  1.
</event>
<event>
 4    1  0.5640637E-004  0.6500000E+04  0.7818608E-02  0.7223770E-01
         52   -1    0    0    0    0  0.00000000000E+00  0.00000000000E+00  0.64930732323E+04  0.65000000000E+04  0.30000000000E+03 0. -1.
        -52   -1    0    0    0    0 -0.00000000000E+00 -0.00000000000E+00 -0.64930732323E+04  0.65000000000E+04  0.30000000000E+03 0.  1.
     100001    1    1    2    0    0  0.24620728793E+04 -0.11834255505E+04 -0.58961895198E+04  0.65000000000E+04  0.15050000000E+03 0.  1.
     100001    1    1    2    0    0 -0.24620728793E+04  0.11834255505E+04  0.58961895198E+04  0.65000000000E+04  0.15050000000E+03 0. -1.
</event>
<event>
 4    1  0.5640637E-004  0.6500000E+04  0.7818608E-02  0.7223770E-01
         52   -1    0    0    0    0  0.00000000000E+00  0.00000000000E+00  0.64930732323E+04  0.65000000000E+04  0.30000000000E+03 0. -1.
        -52   -1    0    0    0    0 -0.00000000000E+00 -0.00000000000E+00 -0.64930732323E+04  0.65000000000E+04  0.30000000000E+03 0.  1.
     100001    1    1    2    0    0 -0.18330764321E+03 -0.21942641769E+03 -0.64919642717E+04  0.65000000000E+04  0.15050000000E+03 0.  1.
     100001    1    1    2    0    0  0.18330764321E+03  0.21942641769E+03  0.64919642717E+04  0.65000000000E+04  0.15050000000E+03 0. -1.
</event>
<event>
 4    1  0.5640637E-004  0.6500000E+04  0.7818608E-02  0.7223770E-01
         52   -1    0    0    0    0  0.00000000000E+00  0.00000000000E+00  0.64930732323E+04  0.65000000000E+04  0.30000000000E+03 0. -1.
        -52   -1    0    0    0    0 -0.00000000000E+00 -0.00000000000E+00 -0.64930732323E+04  0.65000000000E+04  0.30000000000E+03 0. -1.
     100001    1    1    2    0    0 -0.18213259117E+03 -0.16062976276E+03  0.64937181605E+04  0.65000000000E+04  0.15050000000E+03 0. -1.
     100001    1    1    2    0    0  0.18213259117E+03  0.16062976276E+03 -0.64937181605E+04  0.65000000000E+04  0.15050000000E+03 0. -1.
</event>
<event>
 4    1  0.5640637E-004  0.6500000E+04  0.7818608E-02  0.7223770E-01
         52   -1    0    0    0    0  0.00000000000E+00  0.00000000000E+00  0.64930732323E+04  0.65000000000E+04  0.30000000000E+03 0. -1.
        -52   -1    0    0    0    0 -0.00000000000E+00 -0.00000000000E+00 -0.64930732323E+04  0.65000000000E+04  0.30000000000E+03 0.  1.
     100001    1    1    2    0    0  0.12688202419E+04 -0.67445242271E+03 -0.63373936972E+04  0.65000000000E+04  0.15050000000E+03 0.  1.
     100001    1    1    2    0    0 -0.12688202419E+04  0.67445242271E+03  0.63373936972E+04  0.65000000000E+04  0.15050000000E+03 0. -1.
</event>
<event>
 4    1  0.5640637E-004  0.6500000E+04  0.7818608E-02  0.7223770E-01
         52   -1    0    0    0    0  0.00000000000E+00  0.00000000000E+00  0.64930732323E+04  0.65000000000E+04  0.30000000000E+03 0. -1.
        -52   -1    0    0    0    0 -0.00000000000E+00 -0.00000000000E+00 -0.64930732323E+04  0.65000000000E+04  0.30000000000E+03 0.  1.
     100001    1    1    2    0    0 -0.69181729240E+03  0.40470526381E+03  0.64486395645E+04  0.65000000000E+04  0.15050000000E+03 0. -1.
     100001    1    1    2    0    0  0.69181729240E+03 -0.40470526381E+03 -0.64486395645E+04  0.65000000000E+04  0.15050000000E+03 0.  1.
</event>
<event>
 4    1  0.5640637E-004  0.6500000E+04  0.7818608E-02  0.7223770E-01
         52   -1    0    0    0    0  0.00000000000E+00  0.00000000000E+00  0.64930732323E+04  0.65000000000E+04  0.30000000000E+03 0. -1.
        -52   -1    0    0    0    0 -0.00000000000E+00 -0.00000000000E+00 -0.64930732323E+04  0.65000000000E+04  0.30000000000E+03 0.  1.
     100001    1    1    2    0    0 -0.87981958283E+03 -0.84978778893E+03  0.63820943244E+04  0.65000000000E+04  0.15050000000E+03 0. -1.
     100001    1    1    2    0    0  0.87981958283E+03  0.84978778893E+03 -0.63820943244E+04  0.65000000000E+04  0.15050000000E+03 0.  1.
</event>
<event>
 4    1  0.5640637E-004  0.6500000E+04  0.7818608E-02  0.7223770E-01
         52   -1    0    0    0    0  0.00000000000E+00  0.00000000000E+00  0.64930732323E+04  0.65000000000E+04  0.30000000000E+03 0. -1.
        -52   -1    0    0    0    0 -0.00000000000E+00 -0.00000000000E+00 -0.64930732323E+04  0.65000000000E+04  0.30000000000E+03 0. -1.
     100001    1    1    2    0    0  0.15107130726E+02 -0.27760026422E+03  0.64923077267E+04  0.65000000000E+04  0.15050000000E+03 0. -1.
     100001    1    1    2    0    0 -0.15107130726E+02  0.27760026422E+03 -0.64923077267E+04  0.65000000000E+04  0.15050000000E+03 0. -1.
</event>
<event>
 4    1  0.5640637E-004  0.6500000E+04  0.7818608E-02  0.7223770E-01
         52   -1    0    0    0    0  0.00000000000E+00  0.00000000000E+00  0.64930732323E+04  0.65000000000E+04  0.30000000000E+03 0. -1.
        -52   -1    0    0    0    0 -0.00000000000E+00 -0.00000000000E+00 -0.64930732323E+04  0.65000000000E+04  0.30000000000E+03 0.  1.
     100001    1    1    2    0    0  0.34135881823E+04 -0.47047237249E+04 -0.29052263499E+04  0.65000000000E+04  0.15050000000E+03 0.  1.
     100001    1    1    2    0    0 -0.34135881823E+04  0.47047237249E+04  0.29052263499E+04  0.65000000000E+04  0.15050000000E+03 0. -1.
</event>
<event>
 4    1  0.5640637E-004  0.6500000E+04  0.7818608E-02  0.7223770E-01
         52   -1    0    0    0    0  0.00000000000E+00  0.00000000000E+00  0.64930732323E+04  0.65000000000E+04  0.30000000000E+03 0. -1.
        -52   -1    0    0    0    0 -0.00000000000E+00 -0.00000000000E+00 -0.64930732323E+04  0.65000000000E+04  0.30000000000E+03 0.  1.
     100001    1    1    2    0    0 -0.13868569129E+03  0.69225849996E+03 -0.64597905692E+04  0.65000000000E+04  0.15050000000E+03 0.  1.
     100001    1    1    2    0    0  0.13868569129E+03 -0.69225849996E+03  0.64597905692E+04  0.65000000000E+04  0.15050000000E+03 0. -1.
</event>
<event>
 4    1  0.5640637E-004  0.6500000E+04  0.7818608E-02  0.7223770E-01
         52   -1    0    0    0    0  0.00000000000E+00  0.00000000000E+00  0.64930732323E+04  0.65000000000E+04  0.30000000000E+03 0.  1.
        -52   -1    0    0    0    0 -0.00000000000E+00 -0.00000000000E+00 -0.64930732323E+04  0.65000000000E+04  0.30000000000E+03 0. -1.
     100001    1    1    2    0    0  0.63463662000E+04  0.94910712430E+03 -0.10247836223E+04  0.65000000000E+04  0.15050000000E+03 0.  1.
     100001    1    1    2    0    0 -0.63463662000E+04 -0.94910712430E+03  0.10247836223E+04  0.65000000000E+04  0.15050000000E+03 0. -1.
</event>
<event>
 4    1  0.5640637E-004  0.6500000E+04  0.7818608E-02  0.7223770E-01
         52   -1    0    0    0    0  0.00000000000E+00  0.00000000000E+00  0.64930732323E+04  0.65000000000E+04  0.30000000000E+03 0. -1.
        -52   -1    0    0    0    0 -0.00000000000E+00 -0.00000000000E+00 -0.64930732323E+04  0.65000000000E+04  0.30000000000E+03 0.  1.
     100001    1    1    2    0    0 -0.77010785464E+03  0.29125177335E+03  0.64458867541E+04  0.65000000000E+04  0.15050000000E+03 0. -1.
     100001    1    1    2    0    0  0.77010785464E+03 -0.29125177335E+03 -0.64458867541E+04  0.65000000000E+04  0.15050000000E+03 0.  1.
</event>
<event>
 4    1  0.5640637E-004  0.6500000E+04  0.7818608E-02  0.7223770E-01
         52   -1    0    0    0    0  0.00000000000E+00  0.00000000000E+00  0.64930732323E+04  0.65000000000E+04  0.30000000000E+03 0.  1.
        -52   -1    0    0    0    0 -0.00000000000E+00 -0.00000000000E+00 -0.64930732323E+04  0.65000000000E+04  0.30000000000E+03 0. -1.
     100001    1    1    2    0    0 -0.17851906238E+04 -0.38698114095E+04  0.49056094261E+04  0.65000000000E+04  0.15050000000E+03 0.  1.
     100001    1    1    2    0    0  0.17851906238E+04  0.38698114095E+04 -0.49056094261E+04  0.65000000000E+04  0.15050000000E+03 0. -1.
</event>
<event>
 4    1  0.5640637E-004  0.6500000E+04  0.7818608E-02  0.7223770E-01
         52   -1    0    0    0    0  0.00000000000E+00  0.00000000000E+00  0.64930732323E+04  0.65000000000E+04  0.30000000000E+03 0. -1.
        -52   -1    0    0    0    0 -0.00000000000E+00 -0.00000000000E+00 -0.64930732323E+04  0.65000000000E+04  0.30000000000E+03 0.  1.
     100001    1    1    2    0    0 -0.39167535056E+03  0.92427938655E+03  0.64202529378E+04  0.65000000000E+04  0.15050000000E+03 0. -1.
     100001    1    1    2    0    0  0.39167535056E+03 -0.92427938655E+03 -0.64202529378E+04  0.65000000000E+04  0.15050000000E+03 0.  1.
</event>
<event>
 4    1  0.5640637E-004  0.6500000E+04  0.7818608E-02  0.7223770E-01
         52   -1    0    0    0    0  0.00000000000E+00  0.00000000000E+00  0.64930732323E+04  0.65000000000E+04  0.30000000000E+03 0. -1.
        -52   -1    0    0    0    0 -0.00000000000E+00 -0.00000000000E+00 -0.64930732323E+04  0.65000000000E+04  0.30000000000E+03 0.  1.
     100001    1    1    2    0    0  0.40710041092E+04 -0.10299585385E+04  0.49591794384E+04  0.65000000000E+04  0.15050000000E+03 0. -1.
     100001    1    1    2    0    0 -0.40710041092E+04  0.10299585385E+04 -0.49591794384E+04  0.65000000000E+04  0.15050000000E+03 0.  1.
</event>
<event>
 4    1  0.5640637E-004  0.6500000E+04  0.7818608E-02  0.7223770E-01
         52   -1    0    0    0    0  0.00000000000E+00  0.00000000000E+00  0.64930732323E+04  0.65000000000E+04  0.30000000000E+03 0.  1.
        -52   -1    0    0    0    0 -0.00000000000E+00 -0.00000000000E+00 -0.64930732323E+04  0.65000000000E+04  0.30000000000E+03 0. -1.
     100001    1    1    2    0    0  0.18265136924E+04  0.52339617470E+04 -0.33906993249E+04  0.65000000000E+04  0.15050000000E+03 0. -1.
     100001    1    1    2    0    0 -0.18265136924E+04 -0.52339617470E+04  0.33906993249E+04  0.65000000000E+04  0.15050000000E+03 0.  1.
</event>
<event>
 4    1  0.5640637E-004  0.6500000E+04  0.7818608E-02  0.7223770E-01
         52   -1    0    0    0    0  0.00000000000E+00  0.00000000000E+00  0.64930732323E+04  0.65000000000E+04  0.30000000000E+03 0. -1.
        -52   -1    0    0    0    0 -0.00000000000E+00 -0.00000000000E+00 -0.64930732323E+04  0.65000000000E+04  0.30000000000E+03 0.  1.
     100001    1    1    2    0    0  0.14997656246E+04  0.56516743371E+04  0.28348950614E+04  0.65000000000E+04  0.15050000000E+03 0. -1.
     100001    1    1    2    0    0 -0.14997656246E+04 -0.56516743371E+04 -0.28348950614E+04  0.65000000000E+04  0.15050000000E+03 0.  1.
</event>
<event>
 4    1  0.5640637E-004  0.6500000E+04  0.7818608E-02  0.7223770E-01
         52   -1    0    0    0    0  0.00000000000E+00  0.00000000000E+00  0.64930732323E+04  0.65000000000E+04  0.30000000000E+03 0.  1.
        -52   -1    0    0    0    0 -0.00000000000E+00 -0.00000000000E+00 -0.64930732323E+04  0.65000000000E+04  0.30000000000E+03 0. -1.
     100001    1    1    2    0    0 -0.12258527986E+04  0.55790770196E+03 -0.63571513795E+04  0.65000000000E+04  0.15050000000E+03 0. -1.
     100001    1    1    2    0    0  0.12258527986E+04 -0.55790770196E+03  0.63571513795E+04  0.65000000000E+04  0.15050000000E+03 0.  1.
</event>
<event>
 4    1  0.6813139E-004  0.6500000E+04  0.7818608E-02  0.7223770E-01
         52   -1    0    0    0    0  0.00000000000E+00  0.00000000000E+00  0.64930732323E+04  0.65000000000E+04  0.30000000000E+03 0. -1.
        -52   -1    0    0    0    0 -0.00000000000E+00 -0.00000000000E+00 -0.64930732323E+04  0.65000000000E+04  0.30000000000E+03 0. -1.
     100001    1    1    2    0    0  0.79316249789E+02  0.12946072281E+03  0.64964835568E+04  0.65000000000E+04  0.15050000000E+03 0. -1.
     100001    1    1    2    0    0 -0.79316249789E+02 -0.12946072281E+03 -0.64964835568E+04  0.65000000000E+04  0.15050000000E+03 0. -1.
</event>
<event>
 4    1  0.5640637E-004  0.6500000E+04  0.7818608E-02  0.7223770E-01
         52   -1    0    0    0    0  0.00000000000E+00  0.00000000000E+00  0.64930732323E+04  0.65000000000E+04  0.30000000000E+03 0.  1.
        -52   -1    0    0    0    0 -0.00000000000E+00 -0.00000000000E+00 -0.64930732323E+04  0.65000000000E+04  0.30000000000E+03 0. -1.
     100001    1    1    2    0    0  0.47649033711E+04  0.24804054935E+04  0.36565877813E+04  0.65000000000E+04  0.15050000000E+03 0.  1.
     100001    1    1    2    0    0 -0.47649033711E+04 -0.24804054935E+04 -0.36565877813E+04  0.65000000000E+04  0.15050000000E+03 0. -1.
</event>
<event>
 4    1  0.5640637E-004  0.6500000E+04  0.7818608E-02  0.7223770E-01
         52   -1    0    0    0    0  0.00000000000E+00  0.00000000000E+00  0.64930732323E+04  0.65000000000E+04  0.30000000000E+03 0. -1.
        -52   -1    0    0    0    0 -0.00000000000E+00 -0.00000000000E+00 -0.64930732323E+04  0.65000000000E+04  0.30000000000E+03 0.  1.
     100001    1    1    2    0    0 -0.12119627949E+03  0.20071228993E+04  0.61793299701E+04  0.65000000000E+04  0.15050000000E+03 0. -1.
     100001    1    1    2    0    0  0.12119627949E+03 -0.20071228993E+04 -0.61793299701E+04  0.65000000000E+04  0.15050000000E+03 0.  1.
</event>
<event>
 4    1  0.5640637E-004  0.6500000E+04  0.7818608E-02  0.7223770E-01
         52   -1    0    0    0    0  0.00000000000E+00  0.00000000000E+00  0.64930732323E+04  0.65000000000E+04  0.30000000000E+03 0.  1.
        -52   -1    0    0    0    0 -0.00000000000E+00 -0.00000000000E+00 -0.64930732323E+04  0.65000000000E+04  0.30000000000E+03 0. -1.
     100001    1    1    2    0    0  0.78530601552E+02 -0.40831085267E+03 -0.64849413985E+04  0.65000000000E+04  0.15050000000E+03 0. -1.
     100001    1    1    2    0    0 -0.78530601552E+02  0.40831085267E+03  0.64849413985E+04  0.65000000000E+04  0.15050000000E+03 0.  1.
</event>
<event>
 4    1  0.5640637E-004  0.6500000E+04  0.7818608E-02  0.7223770E-01
         52   -1    0    0    0    0  0.00000000000E+00  0.00000000000E+00  0.64930732323E+04  0.65000000000E+04  0.30000000000E+03 0.  1.
        -52   -1    0    0    0    0 -0.00000000000E+00 -0.00000000000E+00 -0.64930732323E+04  0.65000000000E+04  0.30000000000E+03 0.  1.
     100001    1    1    2    0    0  0.70403000224E+03 -0.86106096523E+01 -0.64600013439E+04  0.65000000000E+04  0.15050000000E+03 0.  1.
     100001    1    1    2    0    0 -0.70403000224E+03  0.86106096523E+01  0.64600013439E+04  0.65000000000E+04  0.15050000000E+03 0.  1.
</event>
<event>
 4    1  0.5640637E-004  0.6500000E+04  0.7818608E-02  0.7223770E-01
         52   -1    0    0    0    0  0.00000000000E+00  0.00000000000E+00  0.64930732323E+04  0.65000000000E+04  0.30000000000E+03 0. -1.
        -52   -1    0    0    0    0 -0.00000000000E+00 -0.00000000000E+00 -0.64930732323E+04  0.65000000000E+04  0.30000000000E+03 0.  1.
     100001    1    1    2    0    0 -0.60491056266E+04 -0.20417450807E+04 -0.12111762441E+04  0.65000000000E+04  0.15050000000E+03 0.  1.
     100001    1    1    2    0    0  0.60491056266E+04  0.20417450807E+04  0.12111762441E+04  0.65000000000E+04  0.15050000000E+03 0. -1.
</event>
<event>
 4    1  0.5640637E-004  0.6500000E+04  0.7818608E-02  0.7223770E-01
         52   -1    0    0    0    0  0.00000000000E+00  0.00000000000E+00  0.64930732323E+04  0.65000000000E+04  0.30000000000E+03 0.  1.
        -52   -1    0    0    0    0 -0.00000000000E+00 -0.00000000000E+00 -0.64930732323E+04  0.65000000000E+04  0.30000000000E+03 0. -1.
     100001    1    1    2    0    0  0.23364028358E+04  0.63432308054E+03  0.60304399316E+04  0.65000000000E+04  0.15050000000E+03 0.  1.
     100001    1    1    2    0    0 -0.23364028358E+04 -0.63432308054E+03 -0.60304399316E+04  0.65000000000E+04  0.15050000000E+03 0. -1.
</event>
<event>
 4    1  0.5640637E-004  0.6500000E+04  0.7818608E-02  0.7223770E-01
         52   -1    0    0    0    0  0.00000000000E+00  0.00000000000E+00  0.64930732323E+04  0.65000000000E+04  0.30000000000E+03 0. -1.
        -52   -1    0    0    0    0 -0.00000000000E+00 -0.00000000000E+00 -0.64930732323E+04  0.65000000000E+04  0.30000000000E+03 0.  1.
     100001    1    1    2    0    0  0.16359320611E+04  0.32273913506E+02  0.62888818113E+04  0.65000000000E+04  0.15050000000E+03 0. -1.
     100001    1    1    2    0    0 -0.16359320611E+04 -0.32273913506E+02 -0.62888818113E+04  0.65000000000E+04  0.15050000000E+03 0.  1.
</event>
<event>
 4    1  0.5640637E-004  0.6500000E+04  0.7818608E-02  0.7223770E-01
         52   -1    0    0    0    0  0.00000000000E+00  0.00000000000E+00  0.64930732323E+04  0.65000000000E+04  0.30000000000E+03 0. -1.
        -52   -1    0    0    0    0 -0.00000000000E+00 -0.00000000000E+00 -0.64930732323E+04  0.65000000000E+04  0.30000000000E+03 0.  1.
     100001    1    1    2    0    0 -0.68889203545E+03 -0.46678595197E+03  0.64447566586E+04  0.65000000000E+04  0.15050000000E+03 0. -1.
     100001    1    1    2    0    0  0.68889203545E+03  0.46678595197E+03 -0.64447566586E+04  0.65000000000E+04  0.15050000000E+03 0.  1.
</event>
<event>
 4    1  0.5640637E-004  0.6500000E+04  0.7818608E-02  0.7223770E-01
         52   -1    0    0    0    0  0.00000000000E+00  0.00000000000E+00  0.64930732323E+04  0.65000000000E+04  0.30000000000E+03 0.  1.
        -52   -1    0    0    0    0 -0.00000000000E+00 -0.00000000000E+00 -0.64930732323E+04  0.65000000000E+04  0.30000000000E+03 0. -1.
     100001    1    1    2    0    0 -0.21332738472E+03 -0.10859965283E+03 -0.64938468793E+04  0.65000000000E+04  0.15050000000E+03 0. -1.
     100001    1    1    2    0    0  0.21332738472E+03  0.10859965283E+03  0.64938468793E+04  0.65000000000E+04  0.15050000000E+03 0.  1.
</event>
<event>
 4    1  0.5640637E-004  0.6500000E+04  0.7818608E-02  0.7223770E-01
         52   -1    0    0    0    0  0.00000000000E+00  0.00000000000E+00  0.64930732323E+04  0.65000000000E+04  0.30000000000E+03 0.  1.
        -52   -1    0    0    0    0 -0.00000000000E+00 -0.00000000000E+00 -0.64930732323E+04  0.65000000000E+04  0.30000000000E+03 0. -1.
     100001    1    1    2    0    0 -0.39573945215E+04 -0.77888525956E+03 -0.50950678213E+04  0.65000000000E+04  0.15050000000E+03 0. -1.
     100001    1    1    2    0    0  0.39573945215E+04  0.77888525956E+03  0.50950678213E+04  0.65000000000E+04  0.15050000000E+03 0.  1.
</event>
<event>
 4    1  0.5640637E-004  0.6500000E+04  0.7818608E-02  0.7223770E-01
         52   -1    0    0    0    0  0.00000000000E+00  0.00000000000E+00  0.64930732323E+04  0.65000000000E+04  0.30000000000E+03 0. -1.
        -52   -1    0    0    0    0 -0.00000000000E+00 -0.00000000000E+00 -0.64930732323E+04  0.65000000000E+04  0.30000000000E+03 0.  1.
     100001    1    1    2    0    0 -0.50502171793E+03 -0.70238637548E+01 -0.64785996542E+04  0.65000000000E+04  0.15050000000E+03 0.  1.
     100001    1    1    2    0    0  0.50502171793E+03  0.70238637548E+01  0.64785996542E+04  0.65000000000E+04  0.15050000000E+03 0. -1.
</event>
<event>
 4    1  0.5640637E-004  0.6500000E+04  0.7818608E-02  0.7223770E-01
         52   -1    0    0    0    0  0.00000000000E+00  0.00000000000E+00  0.64930732323E+04  0.65000000000E+04  0.30000000000E+03 0. -1.
        -52   -1    0    0    0    0 -0.00000000000E+00 -0.00000000000E+00 -0.64930732323E+04  0.65000000000E+04  0.30000000000E+03 0.  1.
     100001    1    1    2    0    0 -0.14628201970E+04 -0.18355016144E+04  0.60595742957E+04  0.65000000000E+04  0.15050000000E+03 0. -1.
     100001    1    1    2    0    0  0.14628201970E+04  0.18355016144E+04 -0.60595742957E+04  0.65000000000E+04  0.15050000000E+03 0.  1.
</event>
<event>
 4    1  0.5640637E-004  0.6500000E+04  0.7818608E-02  0.7223770E-01
         52   -1    0    0    0    0  0.00000000000E+00  0.00000000000E+00  0.64930732323E+04  0.65000000000E+04  0.30000000000E+03 0.  1.
        -52   -1    0    0    0    0 -0.00000000000E+00 -0.00000000000E+00 -0.64930732323E+04  0.65000000000E+04  0.30000000000E+03 0. -1.
     100001    1    1    2    0    0  0.10062056712E+04  0.52026281185E+04 -0.37613243090E+04  0.65000000000E+04  0.15050000000E+03 0. -1.
     100001    1    1    2    0    0 -0.10062056712E+04 -0.52026281185E+04  0.37613243090E+04  0.65000000000E+04  0.15050000000E+03 0.  1.
</event>
<event>
 4    1  0.5640637E-004  0.6500000E+04  0.7818608E-02  0.7223770E-01
         52   -1    0    0    0    0  0.00000000000E+00  0.00000000000E+00  0.64930732323E+04  0.65000000000E+04  0.30000000000E+03 0. -1.
        -52   -1    0    0    0    0 -0.00000000000E+00 -0.00000000000E+00 -0.64930732323E+04  0.65000000000E+04  0.30000000000E+03 0.  1.
     100001    1    1    2    0    0 -0.29898526276E+03  0.19941619893E+03  0.64883118561E+04  0.65000000000E+04  0.15050000000E+03 0. -1.
     100001    1    1    2    0    0  0.29898526276E+03 -0.19941619893E+03 -0.64883118561E+04  0.65000000000E+04  0.15050000000E+03 0.  1.
</event>
<event>
 4    1  0.5640637E-004  0.6500000E+04  0.7818608E-02  0.7223770E-01
         52   -1    0    0    0    0  0.00000000000E+00  0.00000000000E+00  0.64930732323E+04  0.65000000000E+04  0.30000000000E+03 0. -1.
        -52   -1    0    0    0    0 -0.00000000000E+00 -0.00000000000E+00 -0.64930732323E+04  0.65000000000E+04  0.30000000000E+03 0. -1.
     100001    1    1    2    0    0 -0.34532525265E+04  0.12895903219E+04  0.53515748654E+04  0.65000000000E+04  0.15050000000E+03 0. -1.
     100001    1    1    2    0    0  0.34532525265E+04 -0.12895903219E+04 -0.53515748654E+04  0.65000000000E+04  0.15050000000E+03 0. -1.
</event>
<event>
 4    1  0.5640637E-004  0.6500000E+04  0.7818608E-02  0.7223770E-01
         52   -1    0    0    0    0  0.00000000000E+00  0.00000000000E+00  0.64930732323E+04  0.65000000000E+04  0.30000000000E+03 0.  1.
        -52   -1    0    0    0    0 -0.00000000000E+00 -0.00000000000E+00 -0.64930732323E+04  0.65000000000E+04  0.30000000000E+03 0. -1.
     100001    1    1    2    0    0  0.40631973351E+04  0.27881804738E+04  0.42360154405E+04  0.65000000000E+04  0.15050000000E+03 0.  1.
     100001    1    1    2    0    0 -0.40631973351E+04 -0.27881804738E+04 -0.42360154405E+04  0.65000000000E+04  0.15050000000E+03 0. -1.
</event>
<event>
 4    1  0.5640637E-004  0.6500000E+04  0.7818608E-02  0.7223770E-01
         52   -1    0    0    0    0  0.00000000000E+00  0.00000000000E+00  0.64930732323E+04  0.65000000000E+04  0.30000000000E+03 0. -1.
        -52   -1    0    0    0    0 -0.00000000000E+00 -0.00000000000E+00 -0.64930732323E+04  0.65000000000E+04  0.30000000000E+03 0.  1.
     100001    1    1    2    0    0 -0.10818328212E+04  0.25232993999E+04 -0.58898172837E+04  0.65000000000E+04  0.15050000000E+03 0.  1.
     100001    1    1    2    0    0  0.10818328212E+04 -0.25232993999E+04  0.58898172837E+04  0.65000000000E+04  0.15050000000E+03 0. -1.
</event>
<event>
 4    1  0.5640637E-004  0.6500000E+04  0.7818608E-02  0.7223770E-01
         52   -1    0    0    0    0  0.00000000000E+00  0.00000000000E+00  0.64930732323E+04  0.65000000000E+04  0.30000000000E+03 0.  1.
        -52   -1    0    0    0    0 -0.00000000000E+00 -0.00000000000E+00 -0.64930732323E+04  0.65000000000E+04  0.30000000000E+03 0. -1.
     100001    1    1    2    0    0 -0.69770675518E+03 -0.92760676864E+02  0.64600271277E+04  0.65000000000E+04  0.15050000000E+03 0.  1.
     100001    1    1    2    0    0  0.69770675518E+03  0.92760676864E+02 -0.64600271277E+04  0.65000000000E+04  0.15050000000E+03 0. -1.
</event>
<event>
 4    1  0.5640637E-004  0.6500000E+04  0.7818608E-02  0.7223770E-01
         52   -1    0    0    0    0  0.00000000000E+00  0.00000000000E+00  0.64930732323E+04  0.65000000000E+04  0.30000000000E+03 0.  1.
        -52   -1    0    0    0    0 -0.00000000000E+00 -0.00000000000E+00 -0.64930732323E+04  0.65000000000E+04  0.30000000000E+03 0. -1.
     100001    1    1    2    0    0 -0.23485553583E+04 -0.53367387964E+04  0.28689469320E+04  0.65000000000E+04  0.15050000000E+03 0.  1.
     100001    1    1    2    0    0  0.23485553583E+04  0.53367387964E+04 -0.28689469320E+04  0.65000000000E+04  0.15050000000E+03 0. -1.
</event>
<event>
 4    1  0.5640637E-004  0.6500000E+04  0.7818608E-02  0.7223770E-01
         52   -1    0    0    0    0  0.00000000000E+00  0.00000000000E+00  0.64930732323E+04  0.65000000000E+04  0.30000000000E+03 0.  1.
        -52   -1    0    0    0    0 -0.00000000000E+00 -0.00000000000E+00 -0.64930732323E+04  0.65000000000E+04  0.30000000000E+03 0.  1.
     100001    1    1    2    0    0  0.11162683463E+02  0.25424349694E+03 -0.64932723175E+04  0.65000000000E+04  0.15050000000E+03 0.  1.
     100001    1    1    2    0    0 -0.11162683463E+02 -0.25424349694E+03  0.64932723175E+04  0.65000000000E+04  0.15050000000E+03 0.  1.
</event>
<event>
 4    1  0.5640637E-004  0.6500000E+04  0.7818608E-02  0.7223770E-01
         52   -1    0    0    0    0  0.00000000000E+00  0.00000000000E+00  0.64930732323E+04  0.65000000000E+04  0.30000000000E+03 0.  1.
        -52   -1    0    0    0    0 -0.00000000000E+00 -0.00000000000E+00 -0.64930732323E+04  0.65000000000E+04  0.30000000000E+03 0. -1.
     100001    1    1    2    0    0 -0.31649434244E+03 -0.31433466044E+03  0.64829294923E+04  0.65000000000E+04  0.15050000000E+03 0.  1.
     100001    1    1    2    0    0  0.31649434244E+03  0.31433466044E+03 -0.64829294923E+04  0.65000000000E+04  0.15050000000E+03 0. -1.
</event>
<event>
 4    1  0.5640637E-004  0.6500000E+04  0.7818608E-02  0.7223770E-01
         52   -1    0    0    0    0  0.00000000000E+00  0.00000000000E+00  0.64930732323E+04  0.65000000000E+04  0.30000000000E+03 0.  1.
        -52   -1    0    0    0    0 -0.00000000000E+00 -0.00000000000E+00 -0.64930732323E+04  0.65000000000E+04  0.30000000000E+03 0. -1.
     100001    1    1    2    0    0  0.51265345712E+03  0.41805341283E+02 -0.64778691324E+04  0.65000000000E+04  0.15050000000E+03 0. -1.
     100001    1    1    2    0    0 -0.51265345712E+03 -0.41805341283E+02  0.64778691324E+04  0.65000000000E+04  0.15050000000E+03 0.  1.
</event>
<event>
 4    1  0.5640637E-004  0.6500000E+04  0.7818608E-02  0.7223770E-01
         52   -1    0    0    0    0  0.00000000000E+00  0.00000000000E+00  0.64930732323E+04  0.65000000000E+04  0.30000000000E+03 0. -1.
        -52   -1    0    0    0    0 -0.00000000000E+00 -0.00000000000E+00 -0.64930732323E+04  0.65000000000E+04  0.30000000000E+03 0.  1.
     100001    1    1    2    0    0 -0.63847467596E+03 -0.52781984584E+03 -0.64452390218E+04  0.65000000000E+04  0.15050000000E+03 0.  1.
     100001    1    1    2    0    0  0.63847467596E+03  0.52781984584E+03  0.64452390218E+04  0.65000000000E+04  0.15050000000E+03 0. -1.
</event>
<event>
 4    1  0.5640637E-004  0.6500000E+04  0.7818608E-02  0.7223770E-01
         52   -1    0    0    0    0  0.00000000000E+00  0.00000000000E+00  0.64930732323E+04  0.65000000000E+04  0.30000000000E+03 0.  1.
        -52   -1    0    0    0    0 -0.00000000000E+00 -0.00000000000E+00 -0.64930732323E+04  0.65000000000E+04  0.30000000000E+03 0. -1.
     100001    1    1    2    0    0  0.34114233261E+03 -0.99062533980E+03  0.64132388927E+04  0.65000000000E+04  0.15050000000E+03 0.  1.
     100001    1    1    2    0    0 -0.34114233261E+03  0.99062533980E+03 -0.64132388927E+04  0.65000000000E+04  0.15050000000E+03 0. -1.
</event>
<event>
 4    1  0.5640637E-004  0.6500000E+04  0.7818608E-02  0.7223770E-01
         52   -1    0    0    0    0  0.00000000000E+00  0.00000000000E+00  0.64930732323E+04  0.65000000000E+04  0.30000000000E+03 0. -1.
        -52   -1    0    0    0    0 -0.00000000000E+00 -0.00000000000E+00 -0.64930732323E+04  0.65000000000E+04  0.30000000000E+03 0.  1.
     100001    1    1    2    0    0 -0.63606812845E+03 -0.37350792905E+04 -0.52793891483E+04  0.65000000000E+04  0.15050000000E+03 0.  1.
     100001    1    1    2    0    0  0.63606812845E+03  0.37350792905E+04  0.52793891483E+04  0.65000000000E+04  0.15050000000E+03 0. -1.
</event>
<event>
 4    1  0.5640637E-004  0.6500000E+04  0.7818608E-02  0.7223770E-01
         52   -1    0    0    0    0  0.00000000000E+00  0.00000000000E+00  0.64930732323E+04  0.65000000000E+04  0.30000000000E+03 0.  1.
        -52   -1    0    0    0    0 -0.00000000000E+00 -0.00000000000E+00 -0.64930732323E+04  0.65000000000E+04  0.30000000000E+03 0. -1.
     100001    1    1    2    0    0  0.44098470909E+04 -0.23610991694E+04  0.41479885604E+04  0.65000000000E+04  0.15050000000E+03 0.  1.
     100001    1    1    2    0    0 -0.44098470909E+04  0.23610991694E+04 -0.41479885604E+04  0.65000000000E+04  0.15050000000E+03 0. -1.
</event>
<event>
 4    1  0.5640637E-004  0.6500000E+04  0.7818608E-02  0.7223770E-01
         52   -1    0    0    0    0  0.00000000000E+00  0.00000000000E+00  0.64930732323E+04  0.65000000000E+04  0.30000000000E+03 0.  1.
        -52   -1    0    0    0    0 -0.00000000000E+00 -0.00000000000E+00 -0.64930732323E+04  0.65000000000E+04  0.30000000000E+03 0. -1.
     100001    1    1    2    0    0  0.39272425945E+04  0.14446140323E+04 -0.49716401370E+04  0.65000000000E+04  0.15050000000E+03 0. -1.
     100001    1    1    2    0    0 -0.39272425945E+04 -0.14446140323E+04  0.49716401370E+04  0.65000000000E+04  0.15050000000E+03 0.  1.
</event>
<event>
 4    1  0.5640637E-004  0.6500000E+04  0.7818608E-02  0.7223770E-01
         52   -1    0    0    0    0  0.00000000000E+00  0.00000000000E+00  0.64930732323E+04  0.65000000000E+04  0.30000000000E+03 0. -1.
        -52   -1    0    0    0    0 -0.00000000000E+00 -0.00000000000E+00 -0.64930732323E+04  0.65000000000E+04  0.30000000000E+03 0.  1.
     100001    1    1    2    0    0 -0.78348230367E+03 -0.42856661258E+03 -0.64366012684E+04  0.65000000000E+04  0.15050000000E+03 0.  1.
     100001    1    1    2    0    0  0.78348230367E+03  0.42856661258E+03  0.64366012684E+04  0.65000000000E+04  0.15050000000E+03 0. -1.
</event>
<event>
 4    1  0.5640637E-004  0.6500000E+04  0.7818608E-02  0.7223770E-01
         52   -1    0    0    0    0  0.00000000000E+00  0.00000000000E+00  0.64930732323E+04  0.65000000000E+04  0.30000000000E+03 0.  1.
        -52   -1    0    0    0    0 -0.00000000000E+00 -0.00000000000E+00 -0.64930732323E+04  0.65000000000E+04  0.30000000000E+03 0. -1.
     100001    1    1    2    0    0  0.63513170843E+03  0.27623660549E+03 -0.64612422026E+04  0.65000000000E+04  0.15050000000E+03 0. -1.
     100001    1    1    2    0    0 -0.63513170843E+03 -0.27623660549E+03  0.64612422026E+04  0.65000000000E+04  0.15050000000E+03 0.  1.
</event>
<event>
 4    1  0.5640637E-004  0.6500000E+04  0.7818608E-02  0.7223770E-01
         52   -1    0    0    0    0  0.00000000000E+00  0.00000000000E+00  0.64930732323E+04  0.65000000000E+04  0.30000000000E+03 0.  1.
        -52   -1    0    0    0    0 -0.00000000000E+00 -0.00000000000E+00 -0.64930732323E+04  0.65000000000E+04  0.30000000000E+03 0. -1.
     100001    1    1    2    0    0  0.50828274460E+04  0.31552516113E+04 -0.25370459542E+04  0.65000000000E+04  0.15050000000E+03 0. -1.
     100001    1    1    2    0    0 -0.50828274460E+04 -0.31552516113E+04  0.25370459542E+04  0.65000000000E+04  0.15050000000E+03 0.  1.
</event>
<event>
 4    1  0.5640637E-004  0.6500000E+04  0.7818608E-02  0.7223770E-01
         52   -1    0    0    0    0  0.00000000000E+00  0.00000000000E+00  0.64930732323E+04  0.65000000000E+04  0.30000000000E+03 0.  1.
        -52   -1    0    0    0    0 -0.00000000000E+00 -0.00000000000E+00 -0.64930732323E+04  0.65000000000E+04  0.30000000000E+03 0. -1.
     100001    1    1    2    0    0  0.39379240504E+04  0.89394550164E+03  0.50912636313E+04  0.65000000000E+04  0.15050000000E+03 0.  1.
     100001    1    1    2    0    0 -0.39379240504E+04 -0.89394550164E+03 -0.50912636313E+04  0.65000000000E+04  0.15050000000E+03 0. -1.
</event>
<event>
 4    1  0.5640637E-004  0.6500000E+04  0.7818608E-02  0.7223770E-01
         52   -1    0    0    0    0  0.00000000000E+00  0.00000000000E+00  0.64930732323E+04  0.65000000000E+04  0.30000000000E+03 0.  1.
        -52   -1    0    0    0    0 -0.00000000000E+00 -0.00000000000E+00 -0.64930732323E+04  0.65000000000E+04  0.30000000000E+03 0. -1.
     100001    1    1    2    0    0 -0.23058832621E+03 -0.64879436269E+04  0.28419406719E+03  0.65000000000E+04  0.15050000000E+03 0. -1.
     100001    1    1    2    0    0  0.23058832621E+03  0.64879436269E+04 -0.28419406719E+03  0.65000000000E+04  0.15050000000E+03 0.  1.
</event>
<event>
 4    1  0.5640637E-004  0.6500000E+04  0.7818608E-02  0.7223770E-01
         52   -1    0    0    0    0  0.00000000000E+00  0.00000000000E+00  0.64930732323E+04  0.65000000000E+04  0.30000000000E+03 0.  1.
        -52   -1    0    0    0    0 -0.00000000000E+00 -0.00000000000E+00 -0.64930732323E+04  0.65000000000E+04  0.30000000000E+03 0. -1.
     100001    1    1    2    0    0 -0.23576041309E+04 -0.19985737392E+04  0.57161836500E+04  0.65000000000E+04  0.15050000000E+03 0.  1.
     100001    1    1    2    0    0  0.23576041309E+04  0.19985737392E+04 -0.57161836500E+04  0.65000000000E+04  0.15050000000E+03 0. -1.
</event>
<event>
 4    1  0.5640637E-004  0.6500000E+04  0.7818608E-02  0.7223770E-01
         52   -1    0    0    0    0  0.00000000000E+00  0.00000000000E+00  0.64930732323E+04  0.65000000000E+04  0.30000000000E+03 0. -1.
        -52   -1    0    0    0    0 -0.00000000000E+00 -0.00000000000E+00 -0.64930732323E+04  0.65000000000E+04  0.30000000000E+03 0.  1.
     100001    1    1    2    0    0  0.11620183375E+04  0.12046110391E+04  0.62790107006E+04  0.65000000000E+04  0.15050000000E+03 0. -1.
     100001    1    1    2    0    0 -0.11620183375E+04 -0.12046110391E+04 -0.62790107006E+04  0.65000000000E+04  0.15050000000E+03 0.  1.
</event>
<event>
 4    1  0.5640637E-004  0.6500000E+04  0.7818608E-02  0.7223770E-01
         52   -1    0    0    0    0  0.00000000000E+00  0.00000000000E+00  0.64930732323E+04  0.65000000000E+04  0.30000000000E+03 0. -1.
        -52   -1    0    0    0    0 -0.00000000000E+00 -0.00000000000E+00 -0.64930732323E+04  0.65000000000E+04  0.30000000000E+03 0.  1.
     100001    1    1    2    0    0  0.63175112861E+03  0.25686319615E+03 -0.64623727500E+04  0.65000000000E+04  0.15050000000E+03 0.  1.
     100001    1    1    2    0    0 -0.63175112861E+03 -0.25686319615E+03  0.64623727500E+04  0.65000000000E+04  0.15050000000E+03 0. -1.
</event>
<event>
 4    1  0.5640637E-004  0.6500000E+04  0.7818608E-02  0.7223770E-01
         52   -1    0    0    0    0  0.00000000000E+00  0.00000000000E+00  0.64930732323E+04  0.65000000000E+04  0.30000000000E+03 0.  1.
        -52   -1    0    0    0    0 -0.00000000000E+00 -0.00000000000E+00 -0.64930732323E+04  0.65000000000E+04  0.30000000000E+03 0. -1.
     100001    1    1    2    0    0  0.22341785008E+03 -0.37102356698E+03  0.64838087362E+04  0.65000000000E+04  0.15050000000E+03 0.  1.
     100001    1    1    2    0    0 -0.22341785008E+03  0.37102356698E+03 -0.64838087362E+04  0.65000000000E+04  0.15050000000E+03 0. -1.
</event>
<event>
 4    1  0.5640637E-004  0.6500000E+04  0.7818608E-02  0.7223770E-01
         52   -1    0    0    0    0  0.00000000000E+00  0.00000000000E+00  0.64930732323E+04  0.65000000000E+04  0.30000000000E+03 0. -1.
        -52   -1    0    0    0    0 -0.00000000000E+00 -0.00000000000E+00 -0.64930732323E+04  0.65000000000E+04  0.30000000000E+03 0.  1.
     100001    1    1    2    0    0 -0.59281258994E+03 -0.86401934217E+03  0.64132202176E+04  0.65000000000E+04  0.15050000000E+03 0. -1.
     100001    1    1    2    0    0  0.59281258994E+03  0.86401934217E+03 -0.64132202176E+04  0.65000000000E+04  0.15050000000E+03 0.  1.
</event>
<event>
 4    1  0.5640637E-004  0.6500000E+04  0.7818608E-02  0.7223770E-01
         52   -1    0    0    0    0  0.00000000000E+00  0.00000000000E+00  0.64930732323E+04  0.65000000000E+04  0.30000000000E+03 0. -1.
        -52   -1    0    0    0    0 -0.00000000000E+00 -0.00000000000E+00 -0.64930732323E+04  0.65000000000E+04  0.30000000000E+03 0.  1.
     100001    1    1    2    0    0  0.25442488676E+04  0.16249079634E+04 -0.57544610139E+04  0.65000000000E+04  0.15050000000E+03 0.  1.
     100001    1    1    2    0    0 -0.25442488676E+04 -0.16249079634E+04  0.57544610139E+04  0.65000000000E+04  0.15050000000E+03 0. -1.
</event>
<event>
 4    1  0.5640637E-004  0.6500000E+04  0.7818608E-02  0.7223770E-01
         52   -1    0    0    0    0  0.00000000000E+00  0.00000000000E+00  0.64930732323E+04  0.65000000000E+04  0.30000000000E+03 0.  1.
        -52   -1    0    0    0    0 -0.00000000000E+00 -0.00000000000E+00 -0.64930732323E+04  0.65000000000E+04  0.30000000000E+03 0. -1.
     100001    1    1    2    0    0  0.63284948756E+03 -0.83534702392E+03  0.64131931692E+04  0.65000000000E+04  0.15050000000E+03 0.  1.
     100001    1    1    2    0    0 -0.63284948756E+03  0.83534702392E+03 -0.64131931692E+04  0.65000000000E+04  0.15050000000E+03 0. -1.
</event>
<event>
 4    1  0.5640637E-004  0.6500000E+04  0.7818608E-02  0.7223770E-01
         52   -1    0    0    0    0  0.00000000000E+00  0.00000000000E+00  0.64930732323E+04  0.65000000000E+04  0.30000000000E+03 0. -1.
        -52   -1    0    0    0    0 -0.00000000000E+00 -0.00000000000E+00 -0.64930732323E+04  0.65000000000E+04  0.30000000000E+03 0.  1.
     100001    1    1    2    0    0 -0.44252787124E+04 -0.23966129231E+04  0.41110223259E+04  0.65000000000E+04  0.15050000000E+03 0. -1.
     100001    1    1    2    0    0  0.44252787124E+04  0.23966129231E+04 -0.41110223259E+04  0.65000000000E+04  0.15050000000E+03 0.  1.
</event>
<event>
 4    1  0.5640637E-004  0.6500000E+04  0.7818608E-02  0.7223770E-01
         52   -1    0    0    0    0  0.00000000000E+00  0.00000000000E+00  0.64930732323E+04  0.65000000000E+04  0.30000000000E+03 0.  1.
        -52   -1    0    0    0    0 -0.00000000000E+00 -0.00000000000E+00 -0.64930732323E+04  0.65000000000E+04  0.30000000000E+03 0. -1.
     100001    1    1    2    0    0 -0.80070334430E+03 -0.14193563321E+02 -0.64487225438E+04  0.65000000000E+04  0.15050000000E+03 0. -1.
     100001    1    1    2    0    0  0.80070334430E+03  0.14193563321E+02  0.64487225438E+04  0.65000000000E+04  0.15050000000E+03 0.  1.
</event>
<event>
 4    1  0.5640637E-004  0.6500000E+04  0.7818608E-02  0.7223770E-01
         52   -1    0    0    0    0  0.00000000000E+00  0.00000000000E+00  0.64930732323E+04  0.65000000000E+04  0.30000000000E+03 0.  1.
        -52   -1    0    0    0    0 -0.00000000000E+00 -0.00000000000E+00 -0.64930732323E+04  0.65000000000E+04  0.30000000000E+03 0. -1.
     100001    1    1    2    0    0  0.36189861745E+04  0.26803148480E+04  0.46846772711E+04  0.65000000000E+04  0.15050000000E+03 0.  1.
     100001    1    1    2    0    0 -0.36189861745E+04 -0.26803148480E+04 -0.46846772711E+04  0.65000000000E+04  0.15050000000E+03 0. -1.
</event>
<event>
 4    1  0.5640637E-004  0.6500000E+04  0.7818608E-02  0.7223770E-01
         52   -1    0    0    0    0  0.00000000000E+00  0.00000000000E+00  0.64930732323E+04  0.65000000000E+04  0.30000000000E+03 0.  1.
        -52   -1    0    0    0    0 -0.00000000000E+00 -0.00000000000E+00 -0.64930732323E+04  0.65000000000E+04  0.30000000000E+03 0. -1.
     100001    1    1    2    0    0  0.61972004488E+04 -0.45412798775E+03 -0.19015320449E+04  0.65000000000E+04  0.15050000000E+03 0. -1.
     100001    1    1    2    0    0 -0.61972004488E+04  0.45412798775E+03  0.19015320449E+04  0.65000000000E+04  0.15050000000E+03 0.  1.
</event>
