<event>
 4    1  0.4919875E-001  0.5000050E+01  0.7818608E-02  0.2136455E+00
        -11   -1    0    0    0    0  0.00000000000E+00  0.00000000000E+00  0.50000499739E+01  0.50000500000E+01  0.51100000000E-03 0. -1.
         11   -1    0    0    0    0 -0.00000000000E+00 -0.00000000000E+00 -0.50000499739E+01  0.50000500000E+01  0.51100000000E-03 0.  1.
     100001    1    1    2    0    0  0.18599974556E-01  0.10465843357E-01 -0.66715492470E-02  0.50000500000E+01  0.50000000000E+01 0.  1.
     100001    1    1    2    0    0 -0.18599974556E-01 -0.10465843357E-01  0.66715492470E-02  0.50000500000E+01  0.50000000000E+01 0.  0.
</event>
<event>
 4    1  0.4919875E-001  0.5000050E+01  0.7818608E-02  0.2136455E+00
        -11   -1    0    0    0    0  0.00000000000E+00  0.00000000000E+00  0.50000499739E+01  0.50000500000E+01  0.51100000000E-03 0. -1.
         11   -1    0    0    0    0 -0.00000000000E+00 -0.00000000000E+00 -0.50000499739E+01  0.50000500000E+01  0.51100000000E-03 0.  1.
     100001    1    1    2    0    0  0.12826403094E-02 -0.66158970623E-02  0.21321051566E-01  0.50000500000E+01  0.50000000000E+01 0. -1.
     100001    1    1    2    0    0 -0.12826403094E-02  0.66158970623E-02 -0.21321051566E-01  0.50000500000E+01  0.50000000000E+01 0.  1.
</event>
<event>
 4    1  0.4919875E-001  0.5000050E+01  0.7818608E-02  0.2136455E+00
        -11   -1    0    0    0    0  0.00000000000E+00  0.00000000000E+00  0.50000499739E+01  0.50000500000E+01  0.51100000000E-03 0.  1.
         11   -1    0    0    0    0 -0.00000000000E+00 -0.00000000000E+00 -0.50000499739E+01  0.50000500000E+01  0.51100000000E-03 0. -1.
     100001    1    1    2    0    0 -0.19683617640E-01 -0.50505252259E-02 -0.93300531380E-02  0.50000500000E+01  0.50000000000E+01 0. -1.
     100001    1    1    2    0    0  0.19683617640E-01  0.50505252259E-02  0.93300531380E-02  0.50000500000E+01  0.50000000000E+01 0.  1.
</event>
<event>
 4    1  0.4919875E-001  0.5000050E+01  0.7818608E-02  0.2136455E+00
        -11   -1    0    0    0    0  0.00000000000E+00  0.00000000000E+00  0.50000499739E+01  0.50000500000E+01  0.51100000000E-03 0. -1.
         11   -1    0    0    0    0 -0.00000000000E+00 -0.00000000000E+00 -0.50000499739E+01  0.50000500000E+01  0.51100000000E-03 0.  1.
     100001    1    1    2    0    0 -0.11081145235E-01 -0.14427686456E-01 -0.13002022297E-01  0.50000500000E+01  0.50000000000E+01 0.  1.
     100001    1    1    2    0    0  0.11081145235E-01  0.14427686456E-01  0.13002022297E-01  0.50000500000E+01  0.50000000000E+01 0. -1.
</event>
<event>
 4    1  0.4919875E-001  0.5000050E+01  0.7818608E-02  0.2136455E+00
        -11   -1    0    0    0    0  0.00000000000E+00  0.00000000000E+00  0.50000499739E+01  0.50000500000E+01  0.51100000000E-03 0. -1.
         11   -1    0    0    0    0 -0.00000000000E+00 -0.00000000000E+00 -0.50000499739E+01  0.50000500000E+01  0.51100000000E-03 0.  1.
     100001    1    1    2    0    0  0.92395493496E-02  0.20068255401E-01 -0.34493989313E-02  0.50000500000E+01  0.50000000000E+01 0.  1.
     100001    1    1    2    0    0 -0.92395493496E-02 -0.20068255401E-01  0.34493989313E-02  0.50000500000E+01  0.50000000000E+01 0. -1.
</event>
<event>
 4    1  0.4919875E-001  0.5000050E+01  0.7818608E-02  0.2136455E+00
        -11   -1    0    0    0    0  0.00000000000E+00  0.00000000000E+00  0.50000499739E+01  0.50000500000E+01  0.51100000000E-03 0.  1.
         11   -1    0    0    0    0 -0.00000000000E+00 -0.00000000000E+00 -0.50000499739E+01  0.50000500000E+01  0.51100000000E-03 0. -1.
     100001    1    1    2    0    0  0.72667333851E-02  0.79830693821E-02  0.19582331045E-01  0.50000500000E+01  0.50000000000E+01 0.  1.
     100001    1    1    2    0    0 -0.72667333851E-02 -0.79830693821E-02 -0.19582331045E-01  0.50000500000E+01  0.50000000000E+01 0. -1.
</event>
<event>
 4    1  0.4919875E-001  0.5000050E+01  0.7818608E-02  0.2136455E+00
        -11   -1    0    0    0    0  0.00000000000E+00  0.00000000000E+00  0.50000499739E+01  0.50000500000E+01  0.51100000000E-03 0. -1.
         11   -1    0    0    0    0 -0.00000000000E+00 -0.00000000000E+00 -0.50000499739E+01  0.50000500000E+01  0.51100000000E-03 0.  1.
     100001    1    1    2    0    0  0.19180106567E-01  0.10530988082E-01 -0.46069840555E-02  0.50000500000E+01  0.50000000000E+01 0. -1.
     100001    1    1    2    0    0 -0.19180106567E-01 -0.10530988082E-01  0.46069840555E-02  0.50000500000E+01  0.50000000000E+01 0.  1.
</event>
<event>
 4    1  0.4919875E-001  0.5000050E+01  0.7818608E-02  0.2136455E+00
        -11   -1    0    0    0    0  0.00000000000E+00  0.00000000000E+00  0.50000499739E+01  0.50000500000E+01  0.51100000000E-03 0. -1.
         11   -1    0    0    0    0 -0.00000000000E+00 -0.00000000000E+00 -0.50000499739E+01  0.50000500000E+01  0.51100000000E-03 0.  1.
     100001    1    1    2    0    0 -0.47373048993E-03 -0.17812921821E-01 -0.13508437942E-01  0.50000500000E+01  0.50000000000E+01 0.  0.
     100001    1    1    2    0    0  0.47373048993E-03  0.17812921821E-01  0.13508437942E-01  0.50000500000E+01  0.50000000000E+01 0.  0.
</event>
<event>
 4    1  0.4919875E-001  0.5000050E+01  0.7818608E-02  0.2136455E+00
        -11   -1    0    0    0    0  0.00000000000E+00  0.00000000000E+00  0.50000499739E+01  0.50000500000E+01  0.51100000000E-03 0.  1.
         11   -1    0    0    0    0 -0.00000000000E+00 -0.00000000000E+00 -0.50000499739E+01  0.50000500000E+01  0.51100000000E-03 0. -1.
     100001    1    1    2    0    0  0.21788414486E-01 -0.89429331943E-03  0.49464869981E-02  0.50000500000E+01  0.50000000000E+01 0. -1.
     100001    1    1    2    0    0 -0.21788414486E-01  0.89429331943E-03 -0.49464869981E-02  0.50000500000E+01  0.50000000000E+01 0.  0.
</event>
<event>
 4    1  0.4919875E-001  0.5000050E+01  0.7818608E-02  0.2136455E+00
        -11   -1    0    0    0    0  0.00000000000E+00  0.00000000000E+00  0.50000499739E+01  0.50000500000E+01  0.51100000000E-03 0. -1.
         11   -1    0    0    0    0 -0.00000000000E+00 -0.00000000000E+00 -0.50000499739E+01  0.50000500000E+01  0.51100000000E-03 0.  1.
     100001    1    1    2    0    0  0.96492264575E-02 -0.11343375925E-01  0.16680010533E-01  0.50000500000E+01  0.50000000000E+01 0.  0.
     100001    1    1    2    0    0 -0.96492264575E-02  0.11343375925E-01 -0.16680010533E-01  0.50000500000E+01  0.50000000000E+01 0.  0.
</event>
<event>
 4    1  0.4919875E-001  0.5000050E+01  0.7818608E-02  0.2136455E+00
        -11   -1    0    0    0    0  0.00000000000E+00  0.00000000000E+00  0.50000499739E+01  0.50000500000E+01  0.51100000000E-03 0. -1.
         11   -1    0    0    0    0 -0.00000000000E+00 -0.00000000000E+00 -0.50000499739E+01  0.50000500000E+01  0.51100000000E-03 0.  1.
     100001    1    1    2    0    0  0.16633887254E-01 -0.60886486932E-02  0.13647148123E-01  0.50000500000E+01  0.50000000000E+01 0.  0.
     100001    1    1    2    0    0 -0.16633887254E-01  0.60886486932E-02 -0.13647148123E-01  0.50000500000E+01  0.50000000000E+01 0.  0.
</event>
<event>
 4    1  0.4919875E-001  0.5000050E+01  0.7818608E-02  0.2136455E+00
        -11   -1    0    0    0    0  0.00000000000E+00  0.00000000000E+00  0.50000499739E+01  0.50000500000E+01  0.51100000000E-03 0. -1.
         11   -1    0    0    0    0 -0.00000000000E+00 -0.00000000000E+00 -0.50000499739E+01  0.50000500000E+01  0.51100000000E-03 0.  1.
     100001    1    1    2    0    0  0.21771777586E-01 -0.87026224799E-03 -0.50234295418E-02  0.50000500000E+01  0.50000000000E+01 0.  0.
     100001    1    1    2    0    0 -0.21771777586E-01  0.87026224799E-03  0.50234295418E-02  0.50000500000E+01  0.50000000000E+01 0.  1.
</event>
<event>
 4    1  0.4919875E-001  0.5000050E+01  0.7818608E-02  0.2136455E+00
        -11   -1    0    0    0    0  0.00000000000E+00  0.00000000000E+00  0.50000499739E+01  0.50000500000E+01  0.51100000000E-03 0.  1.
         11   -1    0    0    0    0 -0.00000000000E+00 -0.00000000000E+00 -0.50000499739E+01  0.50000500000E+01  0.51100000000E-03 0. -1.
     100001    1    1    2    0    0 -0.15725944544E-01 -0.64087501855E-02 -0.14547339593E-01  0.50000500000E+01  0.50000000000E+01 0. -1.
     100001    1    1    2    0    0  0.15725944544E-01  0.64087501855E-02  0.14547339593E-01  0.50000500000E+01  0.50000000000E+01 0.  1.
</event>
<event>
 4    1  0.4919875E-001  0.5000050E+01  0.7818608E-02  0.2136455E+00
        -11   -1    0    0    0    0  0.00000000000E+00  0.00000000000E+00  0.50000499739E+01  0.50000500000E+01  0.51100000000E-03 0. -1.
         11   -1    0    0    0    0 -0.00000000000E+00 -0.00000000000E+00 -0.50000499739E+01  0.50000500000E+01  0.51100000000E-03 0.  1.
     100001    1    1    2    0    0 -0.61000044349E-03  0.72935013656E-02 -0.21129014111E-01  0.50000500000E+01  0.50000000000E+01 0.  0.
     100001    1    1    2    0    0  0.61000044349E-03 -0.72935013656E-02  0.21129014111E-01  0.50000500000E+01  0.50000000000E+01 0. -1.
</event>
<event>
 4    1  0.4919875E-001  0.5000050E+01  0.7818608E-02  0.2136455E+00
        -11   -1    0    0    0    0  0.00000000000E+00  0.00000000000E+00  0.50000499739E+01  0.50000500000E+01  0.51100000000E-03 0.  1.
         11   -1    0    0    0    0 -0.00000000000E+00 -0.00000000000E+00 -0.50000499739E+01  0.50000500000E+01  0.51100000000E-03 0. -1.
     100001    1    1    2    0    0  0.18343106485E-01  0.12370431145E-01  0.32412000517E-02  0.50000500000E+01  0.50000000000E+01 0.  1.
     100001    1    1    2    0    0 -0.18343106485E-01 -0.12370431145E-01 -0.32412000517E-02  0.50000500000E+01  0.50000000000E+01 0. -1.
</event>
<event>
 4    1  0.4919875E-001  0.5000050E+01  0.7818608E-02  0.2136455E+00
        -11   -1    0    0    0    0  0.00000000000E+00  0.00000000000E+00  0.50000499739E+01  0.50000500000E+01  0.51100000000E-03 0.  1.
         11   -1    0    0    0    0 -0.00000000000E+00 -0.00000000000E+00 -0.50000499739E+01  0.50000500000E+01  0.51100000000E-03 0. -1.
     100001    1    1    2    0    0  0.21119716916E-01 -0.44641891700E-02  0.58336157260E-02  0.50000500000E+01  0.50000000000E+01 0.  1.
     100001    1    1    2    0    0 -0.21119716916E-01  0.44641891700E-02 -0.58336157260E-02  0.50000500000E+01  0.50000000000E+01 0. -1.
</event>
<event>
 4    1  0.4919875E-001  0.5000050E+01  0.7818608E-02  0.2136455E+00
        -11   -1    0    0    0    0  0.00000000000E+00  0.00000000000E+00  0.50000499739E+01  0.50000500000E+01  0.51100000000E-03 0.  1.
         11   -1    0    0    0    0 -0.00000000000E+00 -0.00000000000E+00 -0.50000499739E+01  0.50000500000E+01  0.51100000000E-03 0. -1.
     100001    1    1    2    0    0  0.17435157399E-01 -0.68625624361E-03 -0.13983806307E-01  0.50000500000E+01  0.50000000000E+01 0. -1.
     100001    1    1    2    0    0 -0.17435157399E-01  0.68625624361E-03  0.13983806307E-01  0.50000500000E+01  0.50000000000E+01 0.  1.
</event>
<event>
 4    1  0.4919875E-001  0.5000050E+01  0.7818608E-02  0.2136455E+00
        -11   -1    0    0    0    0  0.00000000000E+00  0.00000000000E+00  0.50000499739E+01  0.50000500000E+01  0.51100000000E-03 0. -1.
         11   -1    0    0    0    0 -0.00000000000E+00 -0.00000000000E+00 -0.50000499739E+01  0.50000500000E+01  0.51100000000E-03 0.  1.
     100001    1    1    2    0    0 -0.20295070286E-01  0.93825934652E-02 -0.28206728874E-03  0.50000500000E+01  0.50000000000E+01 0. -1.
     100001    1    1    2    0    0  0.20295070286E-01 -0.93825934652E-02  0.28206728874E-03  0.50000500000E+01  0.50000000000E+01 0.  1.
</event>
<event>
 4    1  0.4919875E-001  0.5000050E+01  0.7818608E-02  0.2136455E+00
        -11   -1    0    0    0    0  0.00000000000E+00  0.00000000000E+00  0.50000499739E+01  0.50000500000E+01  0.51100000000E-03 0. -1.
         11   -1    0    0    0    0 -0.00000000000E+00 -0.00000000000E+00 -0.50000499739E+01  0.50000500000E+01  0.51100000000E-03 0.  1.
     100001    1    1    2    0    0 -0.12077956168E-01  0.18802645477E-01 -0.76550496050E-03  0.50000500000E+01  0.50000000000E+01 0.  0.
     100001    1    1    2    0    0  0.12077956168E-01 -0.18802645477E-01  0.76550496049E-03  0.50000500000E+01  0.50000000000E+01 0.  1.
</event>
<event>
 4    1  0.4919875E-001  0.5000050E+01  0.7818608E-02  0.2136455E+00
        -11   -1    0    0    0    0  0.00000000000E+00  0.00000000000E+00  0.50000499739E+01  0.50000500000E+01  0.51100000000E-03 0. -1.
         11   -1    0    0    0    0 -0.00000000000E+00 -0.00000000000E+00 -0.50000499739E+01  0.50000500000E+01  0.51100000000E-03 0.  1.
     100001    1    1    2    0    0 -0.17911481235E-01  0.10819593284E-01  0.78814808968E-02  0.50000500000E+01  0.50000000000E+01 0.  1.
     100001    1    1    2    0    0  0.17911481235E-01 -0.10819593284E-01 -0.78814808968E-02  0.50000500000E+01  0.50000000000E+01 0.  0.
</event>
<event>
 4    1  0.4919875E-001  0.5000050E+01  0.7818608E-02  0.2136455E+00
        -11   -1    0    0    0    0  0.00000000000E+00  0.00000000000E+00  0.50000499739E+01  0.50000500000E+01  0.51100000000E-03 0.  1.
         11   -1    0    0    0    0 -0.00000000000E+00 -0.00000000000E+00 -0.50000499739E+01  0.50000500000E+01  0.51100000000E-03 0. -1.
     100001    1    1    2    0    0  0.19219963836E-01 -0.79841184474E-02  0.81761447359E-02  0.50000500000E+01  0.50000000000E+01 0. -1.
     100001    1    1    2    0    0 -0.19219963836E-01  0.79841184474E-02 -0.81761447359E-02  0.50000500000E+01  0.50000000000E+01 0.  0.
</event>
<event>
 4    1  0.4919875E-001  0.5000050E+01  0.7818608E-02  0.2136455E+00
        -11   -1    0    0    0    0  0.00000000000E+00  0.00000000000E+00  0.50000499739E+01  0.50000500000E+01  0.51100000000E-03 0. -1.
         11   -1    0    0    0    0 -0.00000000000E+00 -0.00000000000E+00 -0.50000499739E+01  0.50000500000E+01  0.51100000000E-03 0.  1.
     100001    1    1    2    0    0  0.14672452020E-01  0.15299398099E-01 -0.71168862231E-02  0.50000500000E+01  0.50000000000E+01 0.  0.
     100001    1    1    2    0    0 -0.14672452020E-01 -0.15299398099E-01  0.71168862231E-02  0.50000500000E+01  0.50000000000E+01 0.  1.
</event>
<event>
 4    1  0.4919875E-001  0.5000050E+01  0.7818608E-02  0.2136455E+00
        -11   -1    0    0    0    0  0.00000000000E+00  0.00000000000E+00  0.50000499739E+01  0.50000500000E+01  0.51100000000E-03 0.  1.
         11   -1    0    0    0    0 -0.00000000000E+00 -0.00000000000E+00 -0.50000499739E+01  0.50000500000E+01  0.51100000000E-03 0. -1.
     100001    1    1    2    0    0 -0.45487056054E-02  0.72259186834E-02 -0.20666346472E-01  0.50000500000E+01  0.50000000000E+01 0. -1.
     100001    1    1    2    0    0  0.45487056054E-02 -0.72259186834E-02  0.20666346472E-01  0.50000500000E+01  0.50000000000E+01 0.  1.
</event>
<event>
 4    1  0.4919875E-001  0.5000050E+01  0.7818608E-02  0.2136455E+00
        -11   -1    0    0    0    0  0.00000000000E+00  0.00000000000E+00  0.50000499739E+01  0.50000500000E+01  0.51100000000E-03 0. -1.
         11   -1    0    0    0    0 -0.00000000000E+00 -0.00000000000E+00 -0.50000499739E+01  0.50000500000E+01  0.51100000000E-03 0.  1.
     100001    1    1    2    0    0  0.13960688172E-01 -0.93542804265E-02 -0.14751241421E-01  0.50000500000E+01  0.50000000000E+01 0.  1.
     100001    1    1    2    0    0 -0.13960688172E-01  0.93542804265E-02  0.14751241421E-01  0.50000500000E+01  0.50000000000E+01 0.  1.
</event>
<event>
 4    1  0.4919875E-001  0.5000050E+01  0.7818608E-02  0.2136455E+00
        -11   -1    0    0    0    0  0.00000000000E+00  0.00000000000E+00  0.50000499739E+01  0.50000500000E+01  0.51100000000E-03 0.  1.
         11   -1    0    0    0    0 -0.00000000000E+00 -0.00000000000E+00 -0.50000499739E+01  0.50000500000E+01  0.51100000000E-03 0. -1.
     100001    1    1    2    0    0  0.18960181451E-01  0.82714132030E-02  0.84910389798E-02  0.50000500000E+01  0.50000000000E+01 0.  0.
     100001    1    1    2    0    0 -0.18960181451E-01 -0.82714132030E-02 -0.84910389798E-02  0.50000500000E+01  0.50000000000E+01 0.  1.
</event>
<event>
 4    1  0.4919875E-001  0.5000050E+01  0.7818608E-02  0.2136455E+00
        -11   -1    0    0    0    0  0.00000000000E+00  0.00000000000E+00  0.50000499739E+01  0.50000500000E+01  0.51100000000E-03 0.  1.
         11   -1    0    0    0    0 -0.00000000000E+00 -0.00000000000E+00 -0.50000499739E+01  0.50000500000E+01  0.51100000000E-03 0. -1.
     100001    1    1    2    0    0 -0.49203344065E-02  0.40067184141E-02  0.21441525526E-01  0.50000500000E+01  0.50000000000E+01 0.  1.
     100001    1    1    2    0    0  0.49203344065E-02 -0.40067184141E-02 -0.21441525526E-01  0.50000500000E+01  0.50000000000E+01 0.  0.
</event>
<event>
 4    1  0.4919875E-001  0.5000050E+01  0.7818608E-02  0.2136455E+00
        -11   -1    0    0    0    0  0.00000000000E+00  0.00000000000E+00  0.50000499739E+01  0.50000500000E+01  0.51100000000E-03 0.  1.
         11   -1    0    0    0    0 -0.00000000000E+00 -0.00000000000E+00 -0.50000499739E+01  0.50000500000E+01  0.51100000000E-03 0. -1.
     100001    1    1    2    0    0 -0.69211671416E-02 -0.14360221453E-01  0.15680688289E-01  0.50000500000E+01  0.50000000000E+01 0.  0.
     100001    1    1    2    0    0  0.69211671416E-02  0.14360221453E-01 -0.15680688289E-01  0.50000500000E+01  0.50000000000E+01 0.  0.
</event>
<event>
 4    1  0.4919875E-001  0.5000050E+01  0.7818608E-02  0.2136455E+00
        -11   -1    0    0    0    0  0.00000000000E+00  0.00000000000E+00  0.50000499739E+01  0.50000500000E+01  0.51100000000E-03 0.  1.
         11   -1    0    0    0    0 -0.00000000000E+00 -0.00000000000E+00 -0.50000499739E+01  0.50000500000E+01  0.51100000000E-03 0. -1.
     100001    1    1    2    0    0 -0.16713458052E-01  0.12953419028E-01  0.72712966804E-02  0.50000500000E+01  0.50000000000E+01 0.  1.
     100001    1    1    2    0    0  0.16713458052E-01 -0.12953419028E-01 -0.72712966804E-02  0.50000500000E+01  0.50000000000E+01 0. -1.
</event>
<event>
 4    1  0.4919875E-001  0.5000050E+01  0.7818608E-02  0.2136455E+00
        -11   -1    0    0    0    0  0.00000000000E+00  0.00000000000E+00  0.50000499739E+01  0.50000500000E+01  0.51100000000E-03 0.  1.
         11   -1    0    0    0    0 -0.00000000000E+00 -0.00000000000E+00 -0.50000499739E+01  0.50000500000E+01  0.51100000000E-03 0. -1.
     100001    1    1    2    0    0 -0.12598993854E-01 -0.39218401507E-02  0.18052341224E-01  0.50000500000E+01  0.50000000000E+01 0. -1.
     100001    1    1    2    0    0  0.12598993854E-01  0.39218401507E-02 -0.18052341224E-01  0.50000500000E+01  0.50000000000E+01 0.  0.
</event>
<event>
 4    1  0.4919875E-001  0.5000050E+01  0.7818608E-02  0.2136455E+00
        -11   -1    0    0    0    0  0.00000000000E+00  0.00000000000E+00  0.50000499739E+01  0.50000500000E+01  0.51100000000E-03 0. -1.
         11   -1    0    0    0    0 -0.00000000000E+00 -0.00000000000E+00 -0.50000499739E+01  0.50000500000E+01  0.51100000000E-03 0.  1.
     100001    1    1    2    0    0  0.15513506174E-01 -0.52563601367E-02  0.15221836430E-01  0.50000500000E+01  0.50000000000E+01 0.  0.
     100001    1    1    2    0    0 -0.15513506174E-01  0.52563601367E-02 -0.15221836430E-01  0.50000500000E+01  0.50000000000E+01 0.  0.
</event>
<event>
 4    1  0.4919875E-001  0.5000050E+01  0.7818608E-02  0.2136455E+00
        -11   -1    0    0    0    0  0.00000000000E+00  0.00000000000E+00  0.50000499739E+01  0.50000500000E+01  0.51100000000E-03 0. -1.
         11   -1    0    0    0    0 -0.00000000000E+00 -0.00000000000E+00 -0.50000499739E+01  0.50000500000E+01  0.51100000000E-03 0.  1.
     100001    1    1    2    0    0 -0.18778674886E-01  0.71540546046E-02  0.98073121813E-02  0.50000500000E+01  0.50000000000E+01 0. -1.
     100001    1    1    2    0    0  0.18778674886E-01 -0.71540546046E-02 -0.98073121813E-02  0.50000500000E+01  0.50000000000E+01 0.  1.
</event>
<event>
 4    1  0.4919875E-001  0.5000050E+01  0.7818608E-02  0.2136455E+00
        -11   -1    0    0    0    0  0.00000000000E+00  0.00000000000E+00  0.50000499739E+01  0.50000500000E+01  0.51100000000E-03 0.  1.
         11   -1    0    0    0    0 -0.00000000000E+00 -0.00000000000E+00 -0.50000499739E+01  0.50000500000E+01  0.51100000000E-03 0. -1.
     100001    1    1    2    0    0  0.18050452680E-01 -0.12252561595E-01  0.49049355137E-02  0.50000500000E+01  0.50000000000E+01 0.  1.
     100001    1    1    2    0    0 -0.18050452680E-01  0.12252561595E-01 -0.49049355137E-02  0.50000500000E+01  0.50000000000E+01 0. -1.
</event>
<event>
 4    1  0.4919875E-001  0.5000050E+01  0.7818608E-02  0.2136455E+00
        -11   -1    0    0    0    0  0.00000000000E+00  0.00000000000E+00  0.50000499739E+01  0.50000500000E+01  0.51100000000E-03 0.  1.
         11   -1    0    0    0    0 -0.00000000000E+00 -0.00000000000E+00 -0.50000499739E+01  0.50000500000E+01  0.51100000000E-03 0. -1.
     100001    1    1    2    0    0 -0.13794463839E-02 -0.19561181961E-01 -0.10745221634E-01  0.50000500000E+01  0.50000000000E+01 0.  0.
     100001    1    1    2    0    0  0.13794463839E-02  0.19561181961E-01  0.10745221634E-01  0.50000500000E+01  0.50000000000E+01 0. -1.
</event>
<event>
 4    1  0.4919875E-001  0.5000050E+01  0.7818608E-02  0.2136455E+00
        -11   -1    0    0    0    0  0.00000000000E+00  0.00000000000E+00  0.50000499739E+01  0.50000500000E+01  0.51100000000E-03 0. -1.
         11   -1    0    0    0    0 -0.00000000000E+00 -0.00000000000E+00 -0.50000499739E+01  0.50000500000E+01  0.51100000000E-03 0.  1.
     100001    1    1    2    0    0 -0.30023827348E-02 -0.17629596261E-01 -0.13423320513E-01  0.50000500000E+01  0.50000000000E+01 0.  1.
     100001    1    1    2    0    0  0.30023827348E-02  0.17629596261E-01  0.13423320513E-01  0.50000500000E+01  0.50000000000E+01 0. -1.
</event>
<event>
 4    1  0.4919875E-001  0.5000050E+01  0.7818608E-02  0.2136455E+00
        -11   -1    0    0    0    0  0.00000000000E+00  0.00000000000E+00  0.50000499739E+01  0.50000500000E+01  0.51100000000E-03 0. -1.
         11   -1    0    0    0    0 -0.00000000000E+00 -0.00000000000E+00 -0.50000499739E+01  0.50000500000E+01  0.51100000000E-03 0.  1.
     100001    1    1    2    0    0  0.20155579232E-01 -0.41203704978E-02 -0.87622869615E-02  0.50000500000E+01  0.50000000000E+01 0. -1.
     100001    1    1    2    0    0 -0.20155579232E-01  0.41203704978E-02  0.87622869615E-02  0.50000500000E+01  0.50000000000E+01 0.  0.
</event>
<event>
 4    1  0.4919875E-001  0.5000050E+01  0.7818608E-02  0.2136455E+00
        -11   -1    0    0    0    0  0.00000000000E+00  0.00000000000E+00  0.50000499739E+01  0.50000500000E+01  0.51100000000E-03 0. -1.
         11   -1    0    0    0    0 -0.00000000000E+00 -0.00000000000E+00 -0.50000499739E+01  0.50000500000E+01  0.51100000000E-03 0.  1.
     100001    1    1    2    0    0 -0.14921507599E-01 -0.70064148715E-02 -0.15108317631E-01  0.50000500000E+01  0.50000000000E+01 0.  0.
     100001    1    1    2    0    0  0.14921507599E-01  0.70064148715E-02  0.15108317631E-01  0.50000500000E+01  0.50000000000E+01 0. -1.
</event>
<event>
 4    1  0.4919875E-001  0.5000050E+01  0.7818608E-02  0.2136455E+00
        -11   -1    0    0    0    0  0.00000000000E+00  0.00000000000E+00  0.50000499739E+01  0.50000500000E+01  0.51100000000E-03 0.  1.
         11   -1    0    0    0    0 -0.00000000000E+00 -0.00000000000E+00 -0.50000499739E+01  0.50000500000E+01  0.51100000000E-03 0. -1.
     100001    1    1    2    0    0  0.11107707131E-01  0.58036911377E-02 -0.18518599068E-01  0.50000500000E+01  0.50000000000E+01 0. -1.
     100001    1    1    2    0    0 -0.11107707131E-01 -0.58036911377E-02  0.18518599068E-01  0.50000500000E+01  0.50000000000E+01 0.  1.
</event>
<event>
 4    1  0.4919875E-001  0.5000050E+01  0.7818608E-02  0.2136455E+00
        -11   -1    0    0    0    0  0.00000000000E+00  0.00000000000E+00  0.50000499739E+01  0.50000500000E+01  0.51100000000E-03 0.  1.
         11   -1    0    0    0    0 -0.00000000000E+00 -0.00000000000E+00 -0.50000499739E+01  0.50000500000E+01  0.51100000000E-03 0. -1.
     100001    1    1    2    0    0  0.21362342297E-01 -0.54839933485E-02  0.36849217789E-02  0.50000500000E+01  0.50000000000E+01 0.  0.
     100001    1    1    2    0    0 -0.21362342297E-01  0.54839933485E-02 -0.36849217789E-02  0.50000500000E+01  0.50000000000E+01 0.  1.
</event>
<event>
 4    1  0.4919875E-001  0.5000050E+01  0.7818608E-02  0.2136455E+00
        -11   -1    0    0    0    0  0.00000000000E+00  0.00000000000E+00  0.50000499739E+01  0.50000500000E+01  0.51100000000E-03 0. -1.
         11   -1    0    0    0    0 -0.00000000000E+00 -0.00000000000E+00 -0.50000499739E+01  0.50000500000E+01  0.51100000000E-03 0.  1.
     100001    1    1    2    0    0 -0.20545853650E-01  0.17852666942E-03 -0.88226144663E-02  0.50000500000E+01  0.50000000000E+01 0. -1.
     100001    1    1    2    0    0  0.20545853650E-01 -0.17852666942E-03  0.88226144663E-02  0.50000500000E+01  0.50000000000E+01 0.  0.
</event>
<event>
 4    1  0.4919875E-001  0.5000050E+01  0.7818608E-02  0.2136455E+00
        -11   -1    0    0    0    0  0.00000000000E+00  0.00000000000E+00  0.50000499739E+01  0.50000500000E+01  0.51100000000E-03 0. -1.
         11   -1    0    0    0    0 -0.00000000000E+00 -0.00000000000E+00 -0.50000499739E+01  0.50000500000E+01  0.51100000000E-03 0.  1.
     100001    1    1    2    0    0  0.66583698137E-02 -0.14331050242E-01  0.15820543935E-01  0.50000500000E+01  0.50000000000E+01 0.  1.
     100001    1    1    2    0    0 -0.66583698137E-02  0.14331050242E-01 -0.15820543935E-01  0.50000500000E+01  0.50000000000E+01 0.  0.
</event>
<event>
 4    1  0.4919875E-001  0.5000050E+01  0.7818608E-02  0.2136455E+00
        -11   -1    0    0    0    0  0.00000000000E+00  0.00000000000E+00  0.50000499739E+01  0.50000500000E+01  0.51100000000E-03 0. -1.
         11   -1    0    0    0    0 -0.00000000000E+00 -0.00000000000E+00 -0.50000499739E+01  0.50000500000E+01  0.51100000000E-03 0.  1.
     100001    1    1    2    0    0  0.42501895651E-02 -0.12047585672E-01 -0.18351949982E-01  0.50000500000E+01  0.50000000000E+01 0.  1.
     100001    1    1    2    0    0 -0.42501895651E-02  0.12047585672E-01  0.18351949982E-01  0.50000500000E+01  0.50000000000E+01 0. -1.
</event>
<event>
 4    1  0.4919875E-001  0.5000050E+01  0.7818608E-02  0.2136455E+00
        -11   -1    0    0    0    0  0.00000000000E+00  0.00000000000E+00  0.50000499739E+01  0.50000500000E+01  0.51100000000E-03 0. -1.
         11   -1    0    0    0    0 -0.00000000000E+00 -0.00000000000E+00 -0.50000499739E+01  0.50000500000E+01  0.51100000000E-03 0.  1.
     100001    1    1    2    0    0  0.16617821283E-01 -0.12003136450E-01  0.89316981119E-02  0.50000500000E+01  0.50000000000E+01 0.  1.
     100001    1    1    2    0    0 -0.16617821283E-01  0.12003136450E-01 -0.89316981119E-02  0.50000500000E+01  0.50000000000E+01 0. -1.
</event>
<event>
 4    1  0.4919875E-001  0.5000050E+01  0.7818608E-02  0.2136455E+00
        -11   -1    0    0    0    0  0.00000000000E+00  0.00000000000E+00  0.50000499739E+01  0.50000500000E+01  0.51100000000E-03 0.  1.
         11   -1    0    0    0    0 -0.00000000000E+00 -0.00000000000E+00 -0.50000499739E+01  0.50000500000E+01  0.51100000000E-03 0. -1.
     100001    1    1    2    0    0 -0.12007792319E-02 -0.19922185054E-01 -0.10083014028E-01  0.50000500000E+01  0.50000000000E+01 0. -1.
     100001    1    1    2    0    0  0.12007792319E-02  0.19922185054E-01  0.10083014028E-01  0.50000500000E+01  0.50000000000E+01 0.  1.
</event>
<event>
 4    1  0.4919875E-001  0.5000050E+01  0.7818608E-02  0.2136455E+00
        -11   -1    0    0    0    0  0.00000000000E+00  0.00000000000E+00  0.50000499739E+01  0.50000500000E+01  0.51100000000E-03 0. -1.
         11   -1    0    0    0    0 -0.00000000000E+00 -0.00000000000E+00 -0.50000499739E+01  0.50000500000E+01  0.51100000000E-03 0.  1.
     100001    1    1    2    0    0 -0.10215089517E-01  0.59944738298E-02  0.18966305114E-01  0.50000500000E+01  0.50000000000E+01 0. -1.
     100001    1    1    2    0    0  0.10215089517E-01 -0.59944738298E-02 -0.18966305114E-01  0.50000500000E+01  0.50000000000E+01 0. -1.
</event>
<event>
 4    1  0.4919875E-001  0.5000050E+01  0.7818608E-02  0.2136455E+00
        -11   -1    0    0    0    0  0.00000000000E+00  0.00000000000E+00  0.50000499739E+01  0.50000500000E+01  0.51100000000E-03 0. -1.
         11   -1    0    0    0    0 -0.00000000000E+00 -0.00000000000E+00 -0.50000499739E+01  0.50000500000E+01  0.51100000000E-03 0.  1.
     100001    1    1    2    0    0 -0.12278848358E-01 -0.18581928787E-01  0.19860275803E-02  0.50000500000E+01  0.50000000000E+01 0.  1.
     100001    1    1    2    0    0  0.12278848358E-01  0.18581928787E-01 -0.19860275803E-02  0.50000500000E+01  0.50000000000E+01 0. -1.
</event>
<event>
 4    1  0.4919875E-001  0.5000050E+01  0.7818608E-02  0.2136455E+00
        -11   -1    0    0    0    0  0.00000000000E+00  0.00000000000E+00  0.50000499739E+01  0.50000500000E+01  0.51100000000E-03 0. -1.
         11   -1    0    0    0    0 -0.00000000000E+00 -0.00000000000E+00 -0.50000499739E+01  0.50000500000E+01  0.51100000000E-03 0.  1.
     100001    1    1    2    0    0 -0.29438159895E-02  0.20406994588E-01 -0.86539597476E-02  0.50000500000E+01  0.50000000000E+01 0.  1.
     100001    1    1    2    0    0  0.29438159895E-02 -0.20406994588E-01  0.86539597476E-02  0.50000500000E+01  0.50000000000E+01 0. -1.
</event>
<event>
 4    1  0.4919875E-001  0.5000050E+01  0.7818608E-02  0.2136455E+00
        -11   -1    0    0    0    0  0.00000000000E+00  0.00000000000E+00  0.50000499739E+01  0.50000500000E+01  0.51100000000E-03 0.  1.
         11   -1    0    0    0    0 -0.00000000000E+00 -0.00000000000E+00 -0.50000499739E+01  0.50000500000E+01  0.51100000000E-03 0. -1.
     100001    1    1    2    0    0 -0.49479377104E-02 -0.90537671005E-02 -0.19838087451E-01  0.50000500000E+01  0.50000000000E+01 0.  0.
     100001    1    1    2    0    0  0.49479377104E-02  0.90537671005E-02  0.19838087451E-01  0.50000500000E+01  0.50000000000E+01 0.  1.
</event>
<event>
 4    1  0.4919875E-001  0.5000050E+01  0.7818608E-02  0.2136455E+00
        -11   -1    0    0    0    0  0.00000000000E+00  0.00000000000E+00  0.50000499739E+01  0.50000500000E+01  0.51100000000E-03 0.  1.
         11   -1    0    0    0    0 -0.00000000000E+00 -0.00000000000E+00 -0.50000499739E+01  0.50000500000E+01  0.51100000000E-03 0. -1.
     100001    1    1    2    0    0  0.21850172070E-01  0.45424798602E-02 -0.13922489781E-02  0.50000500000E+01  0.50000000000E+01 0.  0.
     100001    1    1    2    0    0 -0.21850172070E-01 -0.45424798602E-02  0.13922489781E-02  0.50000500000E+01  0.50000000000E+01 0. -1.
</event>
<event>
 4    1  0.4919875E-001  0.5000050E+01  0.7818608E-02  0.2136455E+00
        -11   -1    0    0    0    0  0.00000000000E+00  0.00000000000E+00  0.50000499739E+01  0.50000500000E+01  0.51100000000E-03 0.  1.
         11   -1    0    0    0    0 -0.00000000000E+00 -0.00000000000E+00 -0.50000499739E+01  0.50000500000E+01  0.51100000000E-03 0. -1.
     100001    1    1    2    0    0 -0.81213825207E-02  0.15619829780E-01 -0.13786463056E-01  0.50000500000E+01  0.50000000000E+01 0.  1.
     100001    1    1    2    0    0  0.81213825207E-02 -0.15619829780E-01  0.13786463056E-01  0.50000500000E+01  0.50000000000E+01 0. -1.
</event>
<event>
 4    1  0.4919875E-001  0.5000050E+01  0.7818608E-02  0.2136455E+00
        -11   -1    0    0    0    0  0.00000000000E+00  0.00000000000E+00  0.50000499739E+01  0.50000500000E+01  0.51100000000E-03 0. -1.
         11   -1    0    0    0    0 -0.00000000000E+00 -0.00000000000E+00 -0.50000499739E+01  0.50000500000E+01  0.51100000000E-03 0.  1.
     100001    1    1    2    0    0 -0.13138616544E-01  0.66682462772E-02 -0.16820040038E-01  0.50000500000E+01  0.50000000000E+01 0.  0.
     100001    1    1    2    0    0  0.13138616544E-01 -0.66682462772E-02  0.16820040038E-01  0.50000500000E+01  0.50000000000E+01 0.  0.
</event>
<event>
 4    1  0.4919875E-001  0.5000050E+01  0.7818608E-02  0.2136455E+00
        -11   -1    0    0    0    0  0.00000000000E+00  0.00000000000E+00  0.50000499739E+01  0.50000500000E+01  0.51100000000E-03 0. -1.
         11   -1    0    0    0    0 -0.00000000000E+00 -0.00000000000E+00 -0.50000499739E+01  0.50000500000E+01  0.51100000000E-03 0.  1.
     100001    1    1    2    0    0 -0.16453311391E-01 -0.38436303413E-02  0.14646417653E-01  0.50000500000E+01  0.50000000000E+01 0. -1.
     100001    1    1    2    0    0  0.16453311391E-01  0.38436303413E-02 -0.14646417653E-01  0.50000500000E+01  0.50000000000E+01 0.  1.
</event>
<event>
 4    1  0.4919875E-001  0.5000050E+01  0.7818608E-02  0.2136455E+00
        -11   -1    0    0    0    0  0.00000000000E+00  0.00000000000E+00  0.50000499739E+01  0.50000500000E+01  0.51100000000E-03 0.  1.
         11   -1    0    0    0    0 -0.00000000000E+00 -0.00000000000E+00 -0.50000499739E+01  0.50000500000E+01  0.51100000000E-03 0. -1.
     100001    1    1    2    0    0 -0.19607932187E-01 -0.10433952149E-01  0.25814991540E-02  0.50000500000E+01  0.50000000000E+01 0.  1.
     100001    1    1    2    0    0  0.19607932187E-01  0.10433952149E-01 -0.25814991540E-02  0.50000500000E+01  0.50000000000E+01 0.  0.
</event>
<event>
 4    1  0.4919875E-001  0.5000050E+01  0.7818608E-02  0.2136455E+00
        -11   -1    0    0    0    0  0.00000000000E+00  0.00000000000E+00  0.50000499739E+01  0.50000500000E+01  0.51100000000E-03 0.  1.
         11   -1    0    0    0    0 -0.00000000000E+00 -0.00000000000E+00 -0.50000499739E+01  0.50000500000E+01  0.51100000000E-03 0. -1.
     100001    1    1    2    0    0  0.18050885253E-01  0.12328509537E-01 -0.47091288131E-02  0.50000500000E+01  0.50000000000E+01 0. -1.
     100001    1    1    2    0    0 -0.18050885253E-01 -0.12328509537E-01  0.47091288131E-02  0.50000500000E+01  0.50000000000E+01 0.  1.
</event>
<event>
 4    1  0.4919875E-001  0.5000050E+01  0.7818608E-02  0.2136455E+00
        -11   -1    0    0    0    0  0.00000000000E+00  0.00000000000E+00  0.50000499739E+01  0.50000500000E+01  0.51100000000E-03 0. -1.
         11   -1    0    0    0    0 -0.00000000000E+00 -0.00000000000E+00 -0.50000499739E+01  0.50000500000E+01  0.51100000000E-03 0.  1.
     100001    1    1    2    0    0  0.18082575061E-01 -0.11652814629E-01  0.61020398544E-02  0.50000500000E+01  0.50000000000E+01 0.  0.
     100001    1    1    2    0    0 -0.18082575061E-01  0.11652814629E-01 -0.61020398544E-02  0.50000500000E+01  0.50000000000E+01 0. -1.
</event>
<event>
 4    1  0.4919875E-001  0.5000050E+01  0.7818608E-02  0.2136455E+00
        -11   -1    0    0    0    0  0.00000000000E+00  0.00000000000E+00  0.50000499739E+01  0.50000500000E+01  0.51100000000E-03 0. -1.
         11   -1    0    0    0    0 -0.00000000000E+00 -0.00000000000E+00 -0.50000499739E+01  0.50000500000E+01  0.51100000000E-03 0.  1.
     100001    1    1    2    0    0  0.45621849306E-02  0.17181519824E-01 -0.13564082910E-01  0.50000500000E+01  0.50000000000E+01 0.  1.
     100001    1    1    2    0    0 -0.45621849306E-02 -0.17181519824E-01  0.13564082910E-01  0.50000500000E+01  0.50000000000E+01 0. -1.
</event>
<event>
 4    1  0.4919875E-001  0.5000050E+01  0.7818608E-02  0.2136455E+00
        -11   -1    0    0    0    0  0.00000000000E+00  0.00000000000E+00  0.50000499739E+01  0.50000500000E+01  0.51100000000E-03 0.  1.
         11   -1    0    0    0    0 -0.00000000000E+00 -0.00000000000E+00 -0.50000499739E+01  0.50000500000E+01  0.51100000000E-03 0. -1.
     100001    1    1    2    0    0 -0.20577979045E-02  0.51037229779E-02  0.21673024236E-01  0.50000500000E+01  0.50000000000E+01 0.  1.
     100001    1    1    2    0    0  0.20577979045E-02 -0.51037229779E-02 -0.21673024236E-01  0.50000500000E+01  0.50000000000E+01 0.  0.
</event>
<event>
 4    1  0.4919875E-001  0.5000050E+01  0.7818608E-02  0.2136455E+00
        -11   -1    0    0    0    0  0.00000000000E+00  0.00000000000E+00  0.50000499739E+01  0.50000500000E+01  0.51100000000E-03 0. -1.
         11   -1    0    0    0    0 -0.00000000000E+00 -0.00000000000E+00 -0.50000499739E+01  0.50000500000E+01  0.51100000000E-03 0.  1.
     100001    1    1    2    0    0 -0.14822090957E-01  0.16154971308E-01 -0.43960233948E-02  0.50000500000E+01  0.50000000000E+01 0.  0.
     100001    1    1    2    0    0  0.14822090957E-01 -0.16154971308E-01  0.43960233948E-02  0.50000500000E+01  0.50000000000E+01 0.  1.
</event>
<event>
 4    1  0.4919875E-001  0.5000050E+01  0.7818608E-02  0.2136455E+00
        -11   -1    0    0    0    0  0.00000000000E+00  0.00000000000E+00  0.50000499739E+01  0.50000500000E+01  0.51100000000E-03 0. -1.
         11   -1    0    0    0    0 -0.00000000000E+00 -0.00000000000E+00 -0.50000499739E+01  0.50000500000E+01  0.51100000000E-03 0.  1.
     100001    1    1    2    0    0  0.21547539941E-01 -0.38302010273E-02  0.45864564309E-02  0.50000500000E+01  0.50000000000E+01 0.  1.
     100001    1    1    2    0    0 -0.21547539941E-01  0.38302010273E-02 -0.45864564309E-02  0.50000500000E+01  0.50000000000E+01 0. -1.
</event>
<event>
 4    1  0.4919875E-001  0.5000050E+01  0.7818608E-02  0.2136455E+00
        -11   -1    0    0    0    0  0.00000000000E+00  0.00000000000E+00  0.50000499739E+01  0.50000500000E+01  0.51100000000E-03 0. -1.
         11   -1    0    0    0    0 -0.00000000000E+00 -0.00000000000E+00 -0.50000499739E+01  0.50000500000E+01  0.51100000000E-03 0.  1.
     100001    1    1    2    0    0 -0.83518652507E-02 -0.20692412774E-01  0.14397570632E-02  0.50000500000E+01  0.50000000000E+01 0.  1.
     100001    1    1    2    0    0  0.83518652507E-02  0.20692412774E-01 -0.14397570632E-02  0.50000500000E+01  0.50000000000E+01 0. -1.
</event>
<event>
 4    1  0.4919875E-001  0.5000050E+01  0.7818608E-02  0.2136455E+00
        -11   -1    0    0    0    0  0.00000000000E+00  0.00000000000E+00  0.50000499739E+01  0.50000500000E+01  0.51100000000E-03 0. -1.
         11   -1    0    0    0    0 -0.00000000000E+00 -0.00000000000E+00 -0.50000499739E+01  0.50000500000E+01  0.51100000000E-03 0.  1.
     100001    1    1    2    0    0  0.20032992381E-01  0.90444569592E-02 -0.41084686401E-02  0.50000500000E+01  0.50000000000E+01 0.  0.
     100001    1    1    2    0    0 -0.20032992381E-01 -0.90444569592E-02  0.41084686401E-02  0.50000500000E+01  0.50000000000E+01 0.  1.
</event>
<event>
 4    1  0.4919875E-001  0.5000050E+01  0.7818608E-02  0.2136455E+00
        -11   -1    0    0    0    0  0.00000000000E+00  0.00000000000E+00  0.50000499739E+01  0.50000500000E+01  0.51100000000E-03 0. -1.
         11   -1    0    0    0    0 -0.00000000000E+00 -0.00000000000E+00 -0.50000499739E+01  0.50000500000E+01  0.51100000000E-03 0.  1.
     100001    1    1    2    0    0 -0.31193809564E-03 -0.10841100717E-01 -0.19554429930E-01  0.50000500000E+01  0.50000000000E+01 0.  1.
     100001    1    1    2    0    0  0.31193809564E-03  0.10841100717E-01  0.19554429930E-01  0.50000500000E+01  0.50000000000E+01 0.  0.
</event>
<event>
 4    1  0.4919875E-001  0.5000050E+01  0.7818608E-02  0.2136455E+00
        -11   -1    0    0    0    0  0.00000000000E+00  0.00000000000E+00  0.50000499739E+01  0.50000500000E+01  0.51100000000E-03 0.  1.
         11   -1    0    0    0    0 -0.00000000000E+00 -0.00000000000E+00 -0.50000499739E+01  0.50000500000E+01  0.51100000000E-03 0. -1.
     100001    1    1    2    0    0 -0.66186779441E-02 -0.20182679570E-01  0.69896385931E-02  0.50000500000E+01  0.50000000000E+01 0. -1.
     100001    1    1    2    0    0  0.66186779441E-02  0.20182679570E-01 -0.69896385931E-02  0.50000500000E+01  0.50000000000E+01 0.  0.
</event>
<event>
 4    1  0.4919875E-001  0.5000050E+01  0.7818608E-02  0.2136455E+00
        -11   -1    0    0    0    0  0.00000000000E+00  0.00000000000E+00  0.50000499739E+01  0.50000500000E+01  0.51100000000E-03 0. -1.
         11   -1    0    0    0    0 -0.00000000000E+00 -0.00000000000E+00 -0.50000499739E+01  0.50000500000E+01  0.51100000000E-03 0.  1.
     100001    1    1    2    0    0 -0.12341656123E-01  0.18646276434E-01  0.48982542232E-04  0.50000500000E+01  0.50000000000E+01 0.  1.
     100001    1    1    2    0    0  0.12341656123E-01 -0.18646276434E-01 -0.48982542232E-04  0.50000500000E+01  0.50000000000E+01 0. -1.
</event>
<event>
 4    1  0.4919875E-001  0.5000050E+01  0.7818608E-02  0.2136455E+00
        -11   -1    0    0    0    0  0.00000000000E+00  0.00000000000E+00  0.50000499739E+01  0.50000500000E+01  0.51100000000E-03 0. -1.
         11   -1    0    0    0    0 -0.00000000000E+00 -0.00000000000E+00 -0.50000499739E+01  0.50000500000E+01  0.51100000000E-03 0.  1.
     100001    1    1    2    0    0  0.21392998090E-01  0.25271960945E-02  0.59962832341E-02  0.50000500000E+01  0.50000000000E+01 0. -1.
     100001    1    1    2    0    0 -0.21392998090E-01 -0.25271960945E-02 -0.59962832341E-02  0.50000500000E+01  0.50000000000E+01 0.  1.
</event>
<event>
 4    1  0.4919875E-001  0.5000050E+01  0.7818608E-02  0.2136455E+00
        -11   -1    0    0    0    0  0.00000000000E+00  0.00000000000E+00  0.50000499739E+01  0.50000500000E+01  0.51100000000E-03 0. -1.
         11   -1    0    0    0    0 -0.00000000000E+00 -0.00000000000E+00 -0.50000499739E+01  0.50000500000E+01  0.51100000000E-03 0.  1.
     100001    1    1    2    0    0 -0.13593721424E-01 -0.49394298538E-02 -0.17053306734E-01  0.50000500000E+01  0.50000000000E+01 0.  1.
     100001    1    1    2    0    0  0.13593721424E-01  0.49394298538E-02  0.17053306734E-01  0.50000500000E+01  0.50000000000E+01 0. -1.
</event>
<event>
 4    1  0.4919875E-001  0.5000050E+01  0.7818608E-02  0.2136455E+00
        -11   -1    0    0    0    0  0.00000000000E+00  0.00000000000E+00  0.50000499739E+01  0.50000500000E+01  0.51100000000E-03 0.  1.
         11   -1    0    0    0    0 -0.00000000000E+00 -0.00000000000E+00 -0.50000499739E+01  0.50000500000E+01  0.51100000000E-03 0. -1.
     100001    1    1    2    0    0  0.22276543988E-01  0.86487397567E-03  0.17349584912E-02  0.50000500000E+01  0.50000000000E+01 0.  1.
     100001    1    1    2    0    0 -0.22276543988E-01 -0.86487397567E-03 -0.17349584912E-02  0.50000500000E+01  0.50000000000E+01 0.  0.
</event>
<event>
 4    1  0.4919875E-001  0.5000050E+01  0.7818608E-02  0.2136455E+00
        -11   -1    0    0    0    0  0.00000000000E+00  0.00000000000E+00  0.50000499739E+01  0.50000500000E+01  0.51100000000E-03 0. -1.
         11   -1    0    0    0    0 -0.00000000000E+00 -0.00000000000E+00 -0.50000499739E+01  0.50000500000E+01  0.51100000000E-03 0.  1.
     100001    1    1    2    0    0  0.12768826167E-01 -0.16898915655E-01  0.71684187939E-02  0.50000500000E+01  0.50000000000E+01 0.  1.
     100001    1    1    2    0    0 -0.12768826167E-01  0.16898915655E-01 -0.71684187939E-02  0.50000500000E+01  0.50000000000E+01 0. -1.
</event>
<event>
 4    1  0.4919875E-001  0.5000050E+01  0.7818608E-02  0.2136455E+00
        -11   -1    0    0    0    0  0.00000000000E+00  0.00000000000E+00  0.50000499739E+01  0.50000500000E+01  0.51100000000E-03 0.  1.
         11   -1    0    0    0    0 -0.00000000000E+00 -0.00000000000E+00 -0.50000499739E+01  0.50000500000E+01  0.51100000000E-03 0. -1.
     100001    1    1    2    0    0  0.32623096818E-02 -0.10763264954E-01  0.19326457592E-01  0.50000500000E+01  0.50000000000E+01 0.  0.
     100001    1    1    2    0    0 -0.32623096818E-02  0.10763264954E-01 -0.19326457592E-01  0.50000500000E+01  0.50000000000E+01 0.  0.
</event>
<event>
 4    1  0.4919875E-001  0.5000050E+01  0.7818608E-02  0.2136455E+00
        -11   -1    0    0    0    0  0.00000000000E+00  0.00000000000E+00  0.50000499739E+01  0.50000500000E+01  0.51100000000E-03 0. -1.
         11   -1    0    0    0    0 -0.00000000000E+00 -0.00000000000E+00 -0.50000499739E+01  0.50000500000E+01  0.51100000000E-03 0.  1.
     100001    1    1    2    0    0 -0.13444344293E-01 -0.14641259786E-01 -0.10241367995E-01  0.50000500000E+01  0.50000000000E+01 0.  0.
     100001    1    1    2    0    0  0.13444344293E-01  0.14641259786E-01  0.10241367995E-01  0.50000500000E+01  0.50000000000E+01 0.  1.
</event>
<event>
 4    1  0.4919875E-001  0.5000050E+01  0.7818608E-02  0.2136455E+00
        -11   -1    0    0    0    0  0.00000000000E+00  0.00000000000E+00  0.50000499739E+01  0.50000500000E+01  0.51100000000E-03 0. -1.
         11   -1    0    0    0    0 -0.00000000000E+00 -0.00000000000E+00 -0.50000499739E+01  0.50000500000E+01  0.51100000000E-03 0.  1.
     100001    1    1    2    0    0  0.56442326780E-02  0.21406882598E-01 -0.31449189063E-02  0.50000500000E+01  0.50000000000E+01 0.  0.
     100001    1    1    2    0    0 -0.56442326780E-02 -0.21406882598E-01  0.31449189063E-02  0.50000500000E+01  0.50000000000E+01 0. -1.
</event>
<event>
 4    1  0.4919875E-001  0.5000050E+01  0.7818608E-02  0.2136455E+00
        -11   -1    0    0    0    0  0.00000000000E+00  0.00000000000E+00  0.50000499739E+01  0.50000500000E+01  0.51100000000E-03 0. -1.
         11   -1    0    0    0    0 -0.00000000000E+00 -0.00000000000E+00 -0.50000499739E+01  0.50000500000E+01  0.51100000000E-03 0.  1.
     100001    1    1    2    0    0  0.10170876280E-01 -0.16320548206E-01  0.11410323482E-01  0.50000500000E+01  0.50000000000E+01 0.  1.
     100001    1    1    2    0    0 -0.10170876280E-01  0.16320548206E-01 -0.11410323482E-01  0.50000500000E+01  0.50000000000E+01 0.  1.
</event>
<event>
 4    1  0.4919875E-001  0.5000050E+01  0.7818608E-02  0.2136455E+00
        -11   -1    0    0    0    0  0.00000000000E+00  0.00000000000E+00  0.50000499739E+01  0.50000500000E+01  0.51100000000E-03 0. -1.
         11   -1    0    0    0    0 -0.00000000000E+00 -0.00000000000E+00 -0.50000499739E+01  0.50000500000E+01  0.51100000000E-03 0.  1.
     100001    1    1    2    0    0 -0.20994598112E-01  0.37839944533E-02  0.67015472918E-02  0.50000500000E+01  0.50000000000E+01 0.  1.
     100001    1    1    2    0    0  0.20994598112E-01 -0.37839944533E-02 -0.67015472918E-02  0.50000500000E+01  0.50000000000E+01 0.  0.
</event>
<event>
 4    1  0.4919875E-001  0.5000050E+01  0.7818608E-02  0.2136455E+00
        -11   -1    0    0    0    0  0.00000000000E+00  0.00000000000E+00  0.50000499739E+01  0.50000500000E+01  0.51100000000E-03 0. -1.
         11   -1    0    0    0    0 -0.00000000000E+00 -0.00000000000E+00 -0.50000499739E+01  0.50000500000E+01  0.51100000000E-03 0.  1.
     100001    1    1    2    0    0  0.19694900531E-01 -0.15633149381E-02  0.10472317769E-01  0.50000500000E+01  0.50000000000E+01 0.  0.
     100001    1    1    2    0    0 -0.19694900531E-01  0.15633149381E-02 -0.10472317769E-01  0.50000500000E+01  0.50000000000E+01 0.  0.
</event>
<event>
 4    1  0.4919875E-001  0.5000050E+01  0.7818608E-02  0.2136455E+00
        -11   -1    0    0    0    0  0.00000000000E+00  0.00000000000E+00  0.50000499739E+01  0.50000500000E+01  0.51100000000E-03 0.  1.
         11   -1    0    0    0    0 -0.00000000000E+00 -0.00000000000E+00 -0.50000499739E+01  0.50000500000E+01  0.51100000000E-03 0. -1.
     100001    1    1    2    0    0  0.65194992079E-02  0.19097243884E-01  0.96329593637E-02  0.50000500000E+01  0.50000000000E+01 0.  1.
     100001    1    1    2    0    0 -0.65194992079E-02 -0.19097243884E-01 -0.96329593637E-02  0.50000500000E+01  0.50000000000E+01 0. -1.
</event>
<event>
 4    1  0.4919875E-001  0.5000050E+01  0.7818608E-02  0.2136455E+00
        -11   -1    0    0    0    0  0.00000000000E+00  0.00000000000E+00  0.50000499739E+01  0.50000500000E+01  0.51100000000E-03 0.  1.
         11   -1    0    0    0    0 -0.00000000000E+00 -0.00000000000E+00 -0.50000499739E+01  0.50000500000E+01  0.51100000000E-03 0. -1.
     100001    1    1    2    0    0  0.16268370721E-01 -0.10814450129E-02  0.15302715143E-01  0.50000500000E+01  0.50000000000E+01 0.  1.
     100001    1    1    2    0    0 -0.16268370721E-01  0.10814450129E-02 -0.15302715143E-01  0.50000500000E+01  0.50000000000E+01 0. -1.
</event>
<event>
 4    1  0.4919875E-001  0.5000050E+01  0.7818608E-02  0.2136455E+00
        -11   -1    0    0    0    0  0.00000000000E+00  0.00000000000E+00  0.50000499739E+01  0.50000500000E+01  0.51100000000E-03 0. -1.
         11   -1    0    0    0    0 -0.00000000000E+00 -0.00000000000E+00 -0.50000499739E+01  0.50000500000E+01  0.51100000000E-03 0.  1.
     100001    1    1    2    0    0 -0.73010046490E-02 -0.10083733598E-01  0.18574610301E-01  0.50000500000E+01  0.50000000000E+01 0. -1.
     100001    1    1    2    0    0  0.73010046490E-02  0.10083733598E-01 -0.18574610301E-01  0.50000500000E+01  0.50000000000E+01 0.  0.
</event>
<event>
 4    1  0.4919875E-001  0.5000050E+01  0.7818608E-02  0.2136455E+00
        -11   -1    0    0    0    0  0.00000000000E+00  0.00000000000E+00  0.50000499739E+01  0.50000500000E+01  0.51100000000E-03 0. -1.
         11   -1    0    0    0    0 -0.00000000000E+00 -0.00000000000E+00 -0.50000499739E+01  0.50000500000E+01  0.51100000000E-03 0.  1.
     100001    1    1    2    0    0 -0.90507881533E-02  0.19031735818E-01  0.74752100673E-02  0.50000500000E+01  0.50000000000E+01 0. -1.
     100001    1    1    2    0    0  0.90507881533E-02 -0.19031735818E-01 -0.74752100673E-02  0.50000500000E+01  0.50000000000E+01 0.  1.
</event>
<event>
 4    1  0.4919875E-001  0.5000050E+01  0.7818608E-02  0.2136455E+00
        -11   -1    0    0    0    0  0.00000000000E+00  0.00000000000E+00  0.50000499739E+01  0.50000500000E+01  0.51100000000E-03 0.  1.
         11   -1    0    0    0    0 -0.00000000000E+00 -0.00000000000E+00 -0.50000499739E+01  0.50000500000E+01  0.51100000000E-03 0. -1.
     100001    1    1    2    0    0  0.17967359710E-01  0.10259948477E-02 -0.13271164969E-01  0.50000500000E+01  0.50000000000E+01 0.  1.
     100001    1    1    2    0    0 -0.17967359710E-01 -0.10259948477E-02  0.13271164969E-01  0.50000500000E+01  0.50000000000E+01 0.  1.
</event>
<event>
 4    1  0.4919875E-001  0.5000050E+01  0.7818608E-02  0.2136455E+00
        -11   -1    0    0    0    0  0.00000000000E+00  0.00000000000E+00  0.50000499739E+01  0.50000500000E+01  0.51100000000E-03 0. -1.
         11   -1    0    0    0    0 -0.00000000000E+00 -0.00000000000E+00 -0.50000499739E+01  0.50000500000E+01  0.51100000000E-03 0.  1.
     100001    1    1    2    0    0 -0.17467131716E-01 -0.11039242658E-01 -0.85461647035E-02  0.50000500000E+01  0.50000000000E+01 0.  1.
     100001    1    1    2    0    0  0.17467131716E-01  0.11039242658E-01  0.85461647035E-02  0.50000500000E+01  0.50000000000E+01 0. -1.
</event>
<event>
 4    1  0.4919875E-001  0.5000050E+01  0.7818608E-02  0.2136455E+00
        -11   -1    0    0    0    0  0.00000000000E+00  0.00000000000E+00  0.50000499739E+01  0.50000500000E+01  0.51100000000E-03 0. -1.
         11   -1    0    0    0    0 -0.00000000000E+00 -0.00000000000E+00 -0.50000499739E+01  0.50000500000E+01  0.51100000000E-03 0.  1.
     100001    1    1    2    0    0  0.12138931154E-01  0.32364295770E-02 -0.18497955942E-01  0.50000500000E+01  0.50000000000E+01 0.  1.
     100001    1    1    2    0    0 -0.12138931154E-01 -0.32364295770E-02  0.18497955942E-01  0.50000500000E+01  0.50000000000E+01 0.  0.
</event>
<event>
 4    1  0.4919875E-001  0.5000050E+01  0.7818608E-02  0.2136455E+00
        -11   -1    0    0    0    0  0.00000000000E+00  0.00000000000E+00  0.50000499739E+01  0.50000500000E+01  0.51100000000E-03 0. -1.
         11   -1    0    0    0    0 -0.00000000000E+00 -0.00000000000E+00 -0.50000499739E+01  0.50000500000E+01  0.51100000000E-03 0.  1.
     100001    1    1    2    0    0 -0.85245029106E-02  0.35171445269E-02  0.20370690820E-01  0.50000500000E+01  0.50000000000E+01 0. -1.
     100001    1    1    2    0    0  0.85245029106E-02 -0.35171445269E-02 -0.20370690820E-01  0.50000500000E+01  0.50000000000E+01 0. -1.
</event>
<event>
 4    1  0.4919875E-001  0.5000050E+01  0.7818608E-02  0.2136455E+00
        -11   -1    0    0    0    0  0.00000000000E+00  0.00000000000E+00  0.50000499739E+01  0.50000500000E+01  0.51100000000E-03 0.  1.
         11   -1    0    0    0    0 -0.00000000000E+00 -0.00000000000E+00 -0.50000499739E+01  0.50000500000E+01  0.51100000000E-03 0. -1.
     100001    1    1    2    0    0  0.13368342898E-01  0.11454258102E-01 -0.13787308638E-01  0.50000500000E+01  0.50000000000E+01 0. -1.
     100001    1    1    2    0    0 -0.13368342898E-01 -0.11454258102E-01  0.13787308638E-01  0.50000500000E+01  0.50000000000E+01 0.  1.
</event>
<event>
 4    1  0.4919875E-001  0.5000050E+01  0.7818608E-02  0.2136455E+00
        -11   -1    0    0    0    0  0.00000000000E+00  0.00000000000E+00  0.50000499739E+01  0.50000500000E+01  0.51100000000E-03 0. -1.
         11   -1    0    0    0    0 -0.00000000000E+00 -0.00000000000E+00 -0.50000499739E+01  0.50000500000E+01  0.51100000000E-03 0.  1.
     100001    1    1    2    0    0 -0.40323051226E-02  0.95656329413E-04  0.21993950652E-01  0.50000500000E+01  0.50000000000E+01 0.  0.
     100001    1    1    2    0    0  0.40323051226E-02 -0.95656329413E-04 -0.21993950652E-01  0.50000500000E+01  0.50000000000E+01 0.  1.
</event>
<event>
 4    1  0.4919875E-001  0.5000050E+01  0.7818608E-02  0.2136455E+00
        -11   -1    0    0    0    0  0.00000000000E+00  0.00000000000E+00  0.50000499739E+01  0.50000500000E+01  0.51100000000E-03 0.  1.
         11   -1    0    0    0    0 -0.00000000000E+00 -0.00000000000E+00 -0.50000499739E+01  0.50000500000E+01  0.51100000000E-03 0. -1.
     100001    1    1    2    0    0  0.13551408503E-01  0.16750907313E-01  0.59807133161E-02  0.50000500000E+01  0.50000000000E+01 0.  1.
     100001    1    1    2    0    0 -0.13551408503E-01 -0.16750907313E-01 -0.59807133161E-02  0.50000500000E+01  0.50000000000E+01 0. -1.
</event>
<event>
 4    1  0.4919875E-001  0.5000050E+01  0.7818608E-02  0.2136455E+00
        -11   -1    0    0    0    0  0.00000000000E+00  0.00000000000E+00  0.50000499739E+01  0.50000500000E+01  0.51100000000E-03 0.  1.
         11   -1    0    0    0    0 -0.00000000000E+00 -0.00000000000E+00 -0.50000499739E+01  0.50000500000E+01  0.51100000000E-03 0. -1.
     100001    1    1    2    0    0 -0.18477747402E-01  0.11387894844E-01 -0.53750536695E-02  0.50000500000E+01  0.50000000000E+01 0.  1.
     100001    1    1    2    0    0  0.18477747402E-01 -0.11387894844E-01  0.53750536695E-02  0.50000500000E+01  0.50000000000E+01 0.  1.
</event>
<event>
 4    1  0.4919875E-001  0.5000050E+01  0.7818608E-02  0.2136455E+00
        -11   -1    0    0    0    0  0.00000000000E+00  0.00000000000E+00  0.50000499739E+01  0.50000500000E+01  0.51100000000E-03 0.  1.
         11   -1    0    0    0    0 -0.00000000000E+00 -0.00000000000E+00 -0.50000499739E+01  0.50000500000E+01  0.51100000000E-03 0. -1.
     100001    1    1    2    0    0 -0.17483144122E-01 -0.13113039724E-02 -0.13878856347E-01  0.50000500000E+01  0.50000000000E+01 0. -1.
     100001    1    1    2    0    0  0.17483144122E-01  0.13113039724E-02  0.13878856347E-01  0.50000500000E+01  0.50000000000E+01 0.  1.
</event>
<event>
 4    1  0.4919875E-001  0.5000050E+01  0.7818608E-02  0.2136455E+00
        -11   -1    0    0    0    0  0.00000000000E+00  0.00000000000E+00  0.50000499739E+01  0.50000500000E+01  0.51100000000E-03 0.  1.
         11   -1    0    0    0    0 -0.00000000000E+00 -0.00000000000E+00 -0.50000499739E+01  0.50000500000E+01  0.51100000000E-03 0. -1.
     100001    1    1    2    0    0  0.99723413101E-02  0.18568434541E-01 -0.74678074076E-02  0.50000500000E+01  0.50000000000E+01 0.  1.
     100001    1    1    2    0    0 -0.99723413101E-02 -0.18568434541E-01  0.74678074076E-02  0.50000500000E+01  0.50000000000E+01 0.  0.
</event>
<event>
 4    1  0.4919875E-001  0.5000050E+01  0.7818608E-02  0.2136455E+00
        -11   -1    0    0    0    0  0.00000000000E+00  0.00000000000E+00  0.50000499739E+01  0.50000500000E+01  0.51100000000E-03 0.  1.
         11   -1    0    0    0    0 -0.00000000000E+00 -0.00000000000E+00 -0.50000499739E+01  0.50000500000E+01  0.51100000000E-03 0. -1.
     100001    1    1    2    0    0 -0.14848768163E-01 -0.13719188129E-01  0.95551274784E-02  0.50000500000E+01  0.50000000000E+01 0.  0.
     100001    1    1    2    0    0  0.14848768163E-01  0.13719188129E-01 -0.95551274784E-02  0.50000500000E+01  0.50000000000E+01 0.  0.
</event>
<event>
 4    1  0.4919875E-001  0.5000050E+01  0.7818608E-02  0.2136455E+00
        -11   -1    0    0    0    0  0.00000000000E+00  0.00000000000E+00  0.50000499739E+01  0.50000500000E+01  0.51100000000E-03 0.  1.
         11   -1    0    0    0    0 -0.00000000000E+00 -0.00000000000E+00 -0.50000499739E+01  0.50000500000E+01  0.51100000000E-03 0. -1.
     100001    1    1    2    0    0 -0.10036095610E-01 -0.12731273831E-01 -0.15401102283E-01  0.50000500000E+01  0.50000000000E+01 0. -1.
     100001    1    1    2    0    0  0.10036095610E-01  0.12731273831E-01  0.15401102283E-01  0.50000500000E+01  0.50000000000E+01 0.  1.
</event>
<event>
 4    1  0.4919875E-001  0.5000050E+01  0.7818608E-02  0.2136455E+00
        -11   -1    0    0    0    0  0.00000000000E+00  0.00000000000E+00  0.50000499739E+01  0.50000500000E+01  0.51100000000E-03 0.  1.
         11   -1    0    0    0    0 -0.00000000000E+00 -0.00000000000E+00 -0.50000499739E+01  0.50000500000E+01  0.51100000000E-03 0. -1.
     100001    1    1    2    0    0 -0.15063020398E-01 -0.16419228383E-01  0.18753281829E-02  0.50000500000E+01  0.50000000000E+01 0.  1.
     100001    1    1    2    0    0  0.15063020398E-01  0.16419228383E-01 -0.18753281829E-02  0.50000500000E+01  0.50000000000E+01 0. -1.
</event>
<event>
 4    1  0.4919875E-001  0.5000050E+01  0.7818608E-02  0.2136455E+00
        -11   -1    0    0    0    0  0.00000000000E+00  0.00000000000E+00  0.50000499739E+01  0.50000500000E+01  0.51100000000E-03 0.  1.
         11   -1    0    0    0    0 -0.00000000000E+00 -0.00000000000E+00 -0.50000499739E+01  0.50000500000E+01  0.51100000000E-03 0. -1.
     100001    1    1    2    0    0  0.10485916589E-02  0.22241534411E-01  0.20535585178E-02  0.50000500000E+01  0.50000000000E+01 0.  0.
     100001    1    1    2    0    0 -0.10485916589E-02 -0.22241534411E-01 -0.20535585178E-02  0.50000500000E+01  0.50000000000E+01 0.  1.
</event>
<event>
 4    1  0.4919875E-001  0.5000050E+01  0.7818608E-02  0.2136455E+00
        -11   -1    0    0    0    0  0.00000000000E+00  0.00000000000E+00  0.50000499739E+01  0.50000500000E+01  0.51100000000E-03 0.  1.
         11   -1    0    0    0    0 -0.00000000000E+00 -0.00000000000E+00 -0.50000499739E+01  0.50000500000E+01  0.51100000000E-03 0. -1.
     100001    1    1    2    0    0  0.14656825609E-01 -0.85467583381E-02 -0.14564782352E-01  0.50000500000E+01  0.50000000000E+01 0.  0.
     100001    1    1    2    0    0 -0.14656825609E-01  0.85467583381E-02  0.14564782352E-01  0.50000500000E+01  0.50000000000E+01 0.  0.
</event>
<event>
 4    1  0.4919875E-001  0.5000050E+01  0.7818608E-02  0.2136455E+00
        -11   -1    0    0    0    0  0.00000000000E+00  0.00000000000E+00  0.50000499739E+01  0.50000500000E+01  0.51100000000E-03 0. -1.
         11   -1    0    0    0    0 -0.00000000000E+00 -0.00000000000E+00 -0.50000499739E+01  0.50000500000E+01  0.51100000000E-03 0.  1.
     100001    1    1    2    0    0 -0.13328868063E-01  0.12830360683E-01 -0.12558886132E-01  0.50000500000E+01  0.50000000000E+01 0.  1.
     100001    1    1    2    0    0  0.13328868063E-01 -0.12830360683E-01  0.12558886132E-01  0.50000500000E+01  0.50000000000E+01 0. -1.
</event>
<event>
 4    1  0.4919875E-001  0.5000050E+01  0.7818608E-02  0.2136455E+00
        -11   -1    0    0    0    0  0.00000000000E+00  0.00000000000E+00  0.50000499739E+01  0.50000500000E+01  0.51100000000E-03 0.  1.
         11   -1    0    0    0    0 -0.00000000000E+00 -0.00000000000E+00 -0.50000499739E+01  0.50000500000E+01  0.51100000000E-03 0. -1.
     100001    1    1    2    0    0  0.12831863097E-02  0.22236039387E-01 -0.19785058189E-02  0.50000500000E+01  0.50000000000E+01 0.  0.
     100001    1    1    2    0    0 -0.12831863097E-02 -0.22236039387E-01  0.19785058189E-02  0.50000500000E+01  0.50000000000E+01 0. -1.
</event>
<event>
 4    1  0.4919875E-001  0.5000050E+01  0.7818608E-02  0.2136455E+00
        -11   -1    0    0    0    0  0.00000000000E+00  0.00000000000E+00  0.50000499739E+01  0.50000500000E+01  0.51100000000E-03 0.  1.
         11   -1    0    0    0    0 -0.00000000000E+00 -0.00000000000E+00 -0.50000499739E+01  0.50000500000E+01  0.51100000000E-03 0. -1.
     100001    1    1    2    0    0 -0.82311715766E-02  0.18609460973E-01 -0.92702900047E-02  0.50000500000E+01  0.50000000000E+01 0.  1.
     100001    1    1    2    0    0  0.82311715766E-02 -0.18609460973E-01  0.92702900047E-02  0.50000500000E+01  0.50000000000E+01 0.  1.
</event>
<event>
 4    1  0.4919875E-001  0.5000050E+01  0.7818608E-02  0.2136455E+00
        -11   -1    0    0    0    0  0.00000000000E+00  0.00000000000E+00  0.50000499739E+01  0.50000500000E+01  0.51100000000E-03 0. -1.
         11   -1    0    0    0    0 -0.00000000000E+00 -0.00000000000E+00 -0.50000499739E+01  0.50000500000E+01  0.51100000000E-03 0.  1.
     100001    1    1    2    0    0 -0.11975918501E-01 -0.12159702419E-01  0.14447197415E-01  0.50000500000E+01  0.50000000000E+01 0.  0.
     100001    1    1    2    0    0  0.11975918501E-01  0.12159702419E-01 -0.14447197415E-01  0.50000500000E+01  0.50000000000E+01 0.  0.
</event>
<event>
 4    1  0.4919875E-001  0.5000050E+01  0.7818608E-02  0.2136455E+00
        -11   -1    0    0    0    0  0.00000000000E+00  0.00000000000E+00  0.50000499739E+01  0.50000500000E+01  0.51100000000E-03 0.  1.
         11   -1    0    0    0    0 -0.00000000000E+00 -0.00000000000E+00 -0.50000499739E+01  0.50000500000E+01  0.51100000000E-03 0. -1.
     100001    1    1    2    0    0 -0.15722868461E-01  0.15450809661E-01  0.37505183897E-02  0.50000500000E+01  0.50000000000E+01 0.  1.
     100001    1    1    2    0    0  0.15722868461E-01 -0.15450809661E-01 -0.37505183897E-02  0.50000500000E+01  0.50000000000E+01 0. -1.
</event>
<event>
 4    1  0.4919875E-001  0.5000050E+01  0.7818608E-02  0.2136455E+00
        -11   -1    0    0    0    0  0.00000000000E+00  0.00000000000E+00  0.50000499739E+01  0.50000500000E+01  0.51100000000E-03 0.  1.
         11   -1    0    0    0    0 -0.00000000000E+00 -0.00000000000E+00 -0.50000499739E+01  0.50000500000E+01  0.51100000000E-03 0. -1.
     100001    1    1    2    0    0 -0.21966635192E-01 -0.41778843832E-02 -0.12132781428E-03  0.50000500000E+01  0.50000000000E+01 0.  1.
     100001    1    1    2    0    0  0.21966635192E-01  0.41778843832E-02  0.12132781428E-03  0.50000500000E+01  0.50000000000E+01 0. -1.
</event>
<event>
 4    1  0.4919875E-001  0.5000050E+01  0.7818608E-02  0.2136455E+00
        -11   -1    0    0    0    0  0.00000000000E+00  0.00000000000E+00  0.50000499739E+01  0.50000500000E+01  0.51100000000E-03 0. -1.
         11   -1    0    0    0    0 -0.00000000000E+00 -0.00000000000E+00 -0.50000499739E+01  0.50000500000E+01  0.51100000000E-03 0.  1.
     100001    1    1    2    0    0 -0.12714826844E-02  0.14517128880E-01  0.16959917478E-01  0.50000500000E+01  0.50000000000E+01 0. -1.
     100001    1    1    2    0    0  0.12714826844E-02 -0.14517128880E-01 -0.16959917478E-01  0.50000500000E+01  0.50000000000E+01 0.  1.
</event>
<event>
 4    1  0.4919875E-001  0.5000050E+01  0.7818608E-02  0.2136455E+00
        -11   -1    0    0    0    0  0.00000000000E+00  0.00000000000E+00  0.50000499739E+01  0.50000500000E+01  0.51100000000E-03 0.  1.
         11   -1    0    0    0    0 -0.00000000000E+00 -0.00000000000E+00 -0.50000499739E+01  0.50000500000E+01  0.51100000000E-03 0. -1.
     100001    1    1    2    0    0 -0.16146343403E-01  0.13662764759E-01  0.72544437322E-02  0.50000500000E+01  0.50000000000E+01 0.  1.
     100001    1    1    2    0    0  0.16146343403E-01 -0.13662764759E-01 -0.72544437322E-02  0.50000500000E+01  0.50000000000E+01 0.  0.
</event>
<event>
 4    1  0.4919875E-001  0.5000050E+01  0.7818608E-02  0.2136455E+00
        -11   -1    0    0    0    0  0.00000000000E+00  0.00000000000E+00  0.50000499739E+01  0.50000500000E+01  0.51100000000E-03 0. -1.
         11   -1    0    0    0    0 -0.00000000000E+00 -0.00000000000E+00 -0.50000499739E+01  0.50000500000E+01  0.51100000000E-03 0.  1.
     100001    1    1    2    0    0 -0.46917989907E-02  0.97756574404E-02  0.19555716398E-01  0.50000500000E+01  0.50000000000E+01 0. -1.
     100001    1    1    2    0    0  0.46917989907E-02 -0.97756574404E-02 -0.19555716398E-01  0.50000500000E+01  0.50000000000E+01 0.  0.
</event>
<event>
 4    1  0.4919875E-001  0.5000050E+01  0.7818608E-02  0.2136455E+00
        -11   -1    0    0    0    0  0.00000000000E+00  0.00000000000E+00  0.50000499739E+01  0.50000500000E+01  0.51100000000E-03 0.  1.
         11   -1    0    0    0    0 -0.00000000000E+00 -0.00000000000E+00 -0.50000499739E+01  0.50000500000E+01  0.51100000000E-03 0. -1.
     100001    1    1    2    0    0 -0.15377946425E-01 -0.62054994276E-03 -0.16221472853E-01  0.50000500000E+01  0.50000000000E+01 0.  0.
     100001    1    1    2    0    0  0.15377946425E-01  0.62054994276E-03  0.16221472853E-01  0.50000500000E+01  0.50000000000E+01 0.  0.
</event>
<event>
 4    1  0.4919875E-001  0.5000050E+01  0.7818608E-02  0.2136455E+00
        -11   -1    0    0    0    0  0.00000000000E+00  0.00000000000E+00  0.50000499739E+01  0.50000500000E+01  0.51100000000E-03 0. -1.
         11   -1    0    0    0    0 -0.00000000000E+00 -0.00000000000E+00 -0.50000499739E+01  0.50000500000E+01  0.51100000000E-03 0.  1.
     100001    1    1    2    0    0  0.28317134194E-03  0.22358036380E-01  0.20130376850E-03  0.50000500000E+01  0.50000000000E+01 0.  1.
     100001    1    1    2    0    0 -0.28317134194E-03 -0.22358036380E-01 -0.20130376850E-03  0.50000500000E+01  0.50000000000E+01 0. -1.
</event>
<event>
 4    1  0.4919875E-001  0.5000050E+01  0.7818608E-02  0.2136455E+00
        -11   -1    0    0    0    0  0.00000000000E+00  0.00000000000E+00  0.50000499739E+01  0.50000500000E+01  0.51100000000E-03 0. -1.
         11   -1    0    0    0    0 -0.00000000000E+00 -0.00000000000E+00 -0.50000499739E+01  0.50000500000E+01  0.51100000000E-03 0.  1.
     100001    1    1    2    0    0 -0.21395879803E-01 -0.59251069545E-02  0.26668211506E-02  0.50000500000E+01  0.50000000000E+01 0.  0.
     100001    1    1    2    0    0  0.21395879803E-01  0.59251069545E-02 -0.26668211506E-02  0.50000500000E+01  0.50000000000E+01 0.  1.
</event>
<event>
 4    1  0.4919875E-001  0.5000050E+01  0.7818608E-02  0.2136455E+00
        -11   -1    0    0    0    0  0.00000000000E+00  0.00000000000E+00  0.50000499739E+01  0.50000500000E+01  0.51100000000E-03 0.  1.
         11   -1    0    0    0    0 -0.00000000000E+00 -0.00000000000E+00 -0.50000499739E+01  0.50000500000E+01  0.51100000000E-03 0. -1.
     100001    1    1    2    0    0 -0.22309172319E-01 -0.14904045747E-02 -0.28639945664E-03  0.50000500000E+01  0.50000000000E+01 0.  1.
     100001    1    1    2    0    0  0.22309172319E-01  0.14904045747E-02  0.28639945664E-03  0.50000500000E+01  0.50000000000E+01 0. -1.
</event>
<event>
 4    1  0.4919875E-001  0.5000050E+01  0.7818608E-02  0.2136455E+00
        -11   -1    0    0    0    0  0.00000000000E+00  0.00000000000E+00  0.50000499739E+01  0.50000500000E+01  0.51100000000E-03 0. -1.
         11   -1    0    0    0    0 -0.00000000000E+00 -0.00000000000E+00 -0.50000499739E+01  0.50000500000E+01  0.51100000000E-03 0.  1.
     100001    1    1    2    0    0  0.31008781996E-02 -0.21316189898E-01  0.60005918569E-02  0.50000500000E+01  0.50000000000E+01 0. -1.
     100001    1    1    2    0    0 -0.31008781996E-02  0.21316189898E-01 -0.60005918569E-02  0.50000500000E+01  0.50000000000E+01 0. -1.
</event>
<event>
 4    1  0.4919875E-001  0.5000050E+01  0.7818608E-02  0.2136455E+00
        -11   -1    0    0    0    0  0.00000000000E+00  0.00000000000E+00  0.50000499739E+01  0.50000500000E+01  0.51100000000E-03 0.  1.
         11   -1    0    0    0    0 -0.00000000000E+00 -0.00000000000E+00 -0.50000499739E+01  0.50000500000E+01  0.51100000000E-03 0. -1.
     100001    1    1    2    0    0 -0.66788599524E-02 -0.10982727085E-01  0.18296858624E-01  0.50000500000E+01  0.50000000000E+01 0.  1.
     100001    1    1    2    0    0  0.66788599524E-02  0.10982727085E-01 -0.18296858624E-01  0.50000500000E+01  0.50000000000E+01 0.  0.
</event>
<event>
 4    1  0.4919875E-001  0.5000050E+01  0.7818608E-02  0.2136455E+00
        -11   -1    0    0    0    0  0.00000000000E+00  0.00000000000E+00  0.50000499739E+01  0.50000500000E+01  0.51100000000E-03 0. -1.
         11   -1    0    0    0    0 -0.00000000000E+00 -0.00000000000E+00 -0.50000499739E+01  0.50000500000E+01  0.51100000000E-03 0.  1.
     100001    1    1    2    0    0  0.20788671988E-01  0.65706414934E-02 -0.49659125401E-02  0.50000500000E+01  0.50000000000E+01 0. -1.
     100001    1    1    2    0    0 -0.20788671988E-01 -0.65706414934E-02  0.49659125401E-02  0.50000500000E+01  0.50000000000E+01 0.  1.
</event>
<event>
 4    1  0.4919875E-001  0.5000050E+01  0.7818608E-02  0.2136455E+00
        -11   -1    0    0    0    0  0.00000000000E+00  0.00000000000E+00  0.50000499739E+01  0.50000500000E+01  0.51100000000E-03 0. -1.
         11   -1    0    0    0    0 -0.00000000000E+00 -0.00000000000E+00 -0.50000499739E+01  0.50000500000E+01  0.51100000000E-03 0.  1.
     100001    1    1    2    0    0 -0.57091714714E-02  0.13953547043E-03 -0.21619167212E-01  0.50000500000E+01  0.50000000000E+01 0.  1.
     100001    1    1    2    0    0  0.57091714714E-02 -0.13953547043E-03  0.21619167212E-01  0.50000500000E+01  0.50000000000E+01 0.  0.
</event>
<event>
 4    1  0.4919875E-001  0.5000050E+01  0.7818608E-02  0.2136455E+00
        -11   -1    0    0    0    0  0.00000000000E+00  0.00000000000E+00  0.50000499739E+01  0.50000500000E+01  0.51100000000E-03 0. -1.
         11   -1    0    0    0    0 -0.00000000000E+00 -0.00000000000E+00 -0.50000499739E+01  0.50000500000E+01  0.51100000000E-03 0.  1.
     100001    1    1    2    0    0 -0.51331033777E-02  0.21096788189E-01 -0.53459590163E-02  0.50000500000E+01  0.50000000000E+01 0.  1.
     100001    1    1    2    0    0  0.51331033777E-02 -0.21096788189E-01  0.53459590163E-02  0.50000500000E+01  0.50000000000E+01 0. -1.
</event>
<event>
 4    1  0.4919875E-001  0.5000050E+01  0.7818608E-02  0.2136455E+00
        -11   -1    0    0    0    0  0.00000000000E+00  0.00000000000E+00  0.50000499739E+01  0.50000500000E+01  0.51100000000E-03 0.  1.
         11   -1    0    0    0    0 -0.00000000000E+00 -0.00000000000E+00 -0.50000499739E+01  0.50000500000E+01  0.51100000000E-03 0. -1.
     100001    1    1    2    0    0  0.21124608558E-01 -0.72369150953E-02 -0.11749353887E-02  0.50000500000E+01  0.50000000000E+01 0.  0.
     100001    1    1    2    0    0 -0.21124608558E-01  0.72369150953E-02  0.11749353887E-02  0.50000500000E+01  0.50000000000E+01 0.  1.
</event>
<event>
 4    1  0.4919875E-001  0.5000050E+01  0.7818608E-02  0.2136455E+00
        -11   -1    0    0    0    0  0.00000000000E+00  0.00000000000E+00  0.50000499739E+01  0.50000500000E+01  0.51100000000E-03 0.  1.
         11   -1    0    0    0    0 -0.00000000000E+00 -0.00000000000E+00 -0.50000499739E+01  0.50000500000E+01  0.51100000000E-03 0. -1.
     100001    1    1    2    0    0 -0.12275177177E-01  0.17020906403E-01 -0.77208335359E-02  0.50000500000E+01  0.50000000000E+01 0. -1.
     100001    1    1    2    0    0  0.12275177177E-01 -0.17020906403E-01  0.77208335359E-02  0.50000500000E+01  0.50000000000E+01 0.  1.
</event>
<event>
 4    1  0.4919875E-001  0.5000050E+01  0.7818608E-02  0.2136455E+00
        -11   -1    0    0    0    0  0.00000000000E+00  0.00000000000E+00  0.50000499739E+01  0.50000500000E+01  0.51100000000E-03 0.  1.
         11   -1    0    0    0    0 -0.00000000000E+00 -0.00000000000E+00 -0.50000499739E+01  0.50000500000E+01  0.51100000000E-03 0. -1.
     100001    1    1    2    0    0 -0.56736903637E-02  0.18134165387E-01 -0.11788290096E-01  0.50000500000E+01  0.50000000000E+01 0. -1.
     100001    1    1    2    0    0  0.56736903637E-02 -0.18134165387E-01  0.11788290096E-01  0.50000500000E+01  0.50000000000E+01 0.  1.
</event>
<event>
 4    1  0.4919875E-001  0.5000050E+01  0.7818608E-02  0.2136455E+00
        -11   -1    0    0    0    0  0.00000000000E+00  0.00000000000E+00  0.50000499739E+01  0.50000500000E+01  0.51100000000E-03 0. -1.
         11   -1    0    0    0    0 -0.00000000000E+00 -0.00000000000E+00 -0.50000499739E+01  0.50000500000E+01  0.51100000000E-03 0.  1.
     100001    1    1    2    0    0 -0.16634337414E-01 -0.12380690186E-01 -0.83677852093E-02  0.50000500000E+01  0.50000000000E+01 0.  1.
     100001    1    1    2    0    0  0.16634337414E-01  0.12380690186E-01  0.83677852093E-02  0.50000500000E+01  0.50000000000E+01 0. -1.
</event>
<event>
 4    1  0.4919875E-001  0.5000050E+01  0.7818608E-02  0.2136455E+00
        -11   -1    0    0    0    0  0.00000000000E+00  0.00000000000E+00  0.50000499739E+01  0.50000500000E+01  0.51100000000E-03 0.  1.
         11   -1    0    0    0    0 -0.00000000000E+00 -0.00000000000E+00 -0.50000499739E+01  0.50000500000E+01  0.51100000000E-03 0. -1.
     100001    1    1    2    0    0  0.42050693622E-02  0.23603493398E-02  0.21834574478E-01  0.50000500000E+01  0.50000000000E+01 0.  0.
     100001    1    1    2    0    0 -0.42050693622E-02 -0.23603493398E-02 -0.21834574478E-01  0.50000500000E+01  0.50000000000E+01 0. -1.
</event>
<event>
 4    1  0.4919875E-001  0.5000050E+01  0.7818608E-02  0.2136455E+00
        -11   -1    0    0    0    0  0.00000000000E+00  0.00000000000E+00  0.50000499739E+01  0.50000500000E+01  0.51100000000E-03 0.  1.
         11   -1    0    0    0    0 -0.00000000000E+00 -0.00000000000E+00 -0.50000499739E+01  0.50000500000E+01  0.51100000000E-03 0. -1.
     100001    1    1    2    0    0  0.16145480970E-02  0.18262360947E-01  0.12801636891E-01  0.50000500000E+01  0.50000000000E+01 0. -1.
     100001    1    1    2    0    0 -0.16145480970E-02 -0.18262360947E-01 -0.12801636891E-01  0.50000500000E+01  0.50000000000E+01 0.  1.
</event>
<event>
 4    1  0.4919875E-001  0.5000050E+01  0.7818608E-02  0.2136455E+00
        -11   -1    0    0    0    0  0.00000000000E+00  0.00000000000E+00  0.50000499739E+01  0.50000500000E+01  0.51100000000E-03 0. -1.
         11   -1    0    0    0    0 -0.00000000000E+00 -0.00000000000E+00 -0.50000499739E+01  0.50000500000E+01  0.51100000000E-03 0.  1.
     100001    1    1    2    0    0 -0.21310266400E-01  0.65021820781E-02  0.18964899597E-02  0.50000500000E+01  0.50000000000E+01 0. -1.
     100001    1    1    2    0    0  0.21310266400E-01 -0.65021820781E-02 -0.18964899597E-02  0.50000500000E+01  0.50000000000E+01 0.  1.
</event>
<event>
 4    1  0.4919875E-001  0.5000050E+01  0.7818608E-02  0.2136455E+00
        -11   -1    0    0    0    0  0.00000000000E+00  0.00000000000E+00  0.50000499739E+01  0.50000500000E+01  0.51100000000E-03 0.  1.
         11   -1    0    0    0    0 -0.00000000000E+00 -0.00000000000E+00 -0.50000499739E+01  0.50000500000E+01  0.51100000000E-03 0. -1.
     100001    1    1    2    0    0 -0.29369067905E-02 -0.18210940126E-01 -0.12638779143E-01  0.50000500000E+01  0.50000000000E+01 0.  1.
     100001    1    1    2    0    0  0.29369067905E-02  0.18210940126E-01  0.12638779143E-01  0.50000500000E+01  0.50000000000E+01 0.  0.
</event>
<event>
 4    1  0.4919875E-001  0.5000050E+01  0.7818608E-02  0.2136455E+00
        -11   -1    0    0    0    0  0.00000000000E+00  0.00000000000E+00  0.50000499739E+01  0.50000500000E+01  0.51100000000E-03 0. -1.
         11   -1    0    0    0    0 -0.00000000000E+00 -0.00000000000E+00 -0.50000499739E+01  0.50000500000E+01  0.51100000000E-03 0.  1.
     100001    1    1    2    0    0  0.88319929588E-02 -0.11859926536E-01 -0.16773209083E-01  0.50000500000E+01  0.50000000000E+01 0.  1.
     100001    1    1    2    0    0 -0.88319929588E-02  0.11859926536E-01  0.16773209083E-01  0.50000500000E+01  0.50000000000E+01 0. -1.
</event>
<event>
 4    1  0.4919875E-001  0.5000050E+01  0.7818608E-02  0.2136455E+00
        -11   -1    0    0    0    0  0.00000000000E+00  0.00000000000E+00  0.50000499739E+01  0.50000500000E+01  0.51100000000E-03 0.  1.
         11   -1    0    0    0    0 -0.00000000000E+00 -0.00000000000E+00 -0.50000499739E+01  0.50000500000E+01  0.51100000000E-03 0. -1.
     100001    1    1    2    0    0 -0.14036622300E-01 -0.39561854187E-02 -0.16950643980E-01  0.50000500000E+01  0.50000000000E+01 0. -1.
     100001    1    1    2    0    0  0.14036622300E-01  0.39561854187E-02  0.16950643980E-01  0.50000500000E+01  0.50000000000E+01 0.  1.
</event>
<event>
 4    1  0.4919875E-001  0.5000050E+01  0.7818608E-02  0.2136455E+00
        -11   -1    0    0    0    0  0.00000000000E+00  0.00000000000E+00  0.50000499739E+01  0.50000500000E+01  0.51100000000E-03 0. -1.
         11   -1    0    0    0    0 -0.00000000000E+00 -0.00000000000E+00 -0.50000499739E+01  0.50000500000E+01  0.51100000000E-03 0.  1.
     100001    1    1    2    0    0  0.90241159908E-03  0.22284043636E-01 -0.16154109499E-02  0.50000500000E+01  0.50000000000E+01 0. -1.
     100001    1    1    2    0    0 -0.90241159908E-03 -0.22284043636E-01  0.16154109499E-02  0.50000500000E+01  0.50000000000E+01 0.  0.
</event>
<event>
 4    1  0.4919875E-001  0.5000050E+01  0.7818608E-02  0.2136455E+00
        -11   -1    0    0    0    0  0.00000000000E+00  0.00000000000E+00  0.50000499739E+01  0.50000500000E+01  0.51100000000E-03 0. -1.
         11   -1    0    0    0    0 -0.00000000000E+00 -0.00000000000E+00 -0.50000499739E+01  0.50000500000E+01  0.51100000000E-03 0.  1.
     100001    1    1    2    0    0 -0.59686178024E-02 -0.20699813887E-01  0.59913109227E-02  0.50000500000E+01  0.50000000000E+01 0. -1.
     100001    1    1    2    0    0  0.59686178024E-02  0.20699813887E-01 -0.59913109227E-02  0.50000500000E+01  0.50000000000E+01 0. -1.
</event>
<event>
 4    1  0.4919875E-001  0.5000050E+01  0.7818608E-02  0.2136455E+00
        -11   -1    0    0    0    0  0.00000000000E+00  0.00000000000E+00  0.50000499739E+01  0.50000500000E+01  0.51100000000E-03 0. -1.
         11   -1    0    0    0    0 -0.00000000000E+00 -0.00000000000E+00 -0.50000499739E+01  0.50000500000E+01  0.51100000000E-03 0.  1.
     100001    1    1    2    0    0  0.20844120572E-01  0.80945313460E-02 -0.60826475359E-04  0.50000500000E+01  0.50000000000E+01 0.  0.
     100001    1    1    2    0    0 -0.20844120572E-01 -0.80945313460E-02  0.60826475358E-04  0.50000500000E+01  0.50000000000E+01 0.  1.
</event>
<event>
 4    1  0.4919875E-001  0.5000050E+01  0.7818608E-02  0.2136455E+00
        -11   -1    0    0    0    0  0.00000000000E+00  0.00000000000E+00  0.50000499739E+01  0.50000500000E+01  0.51100000000E-03 0. -1.
         11   -1    0    0    0    0 -0.00000000000E+00 -0.00000000000E+00 -0.50000499739E+01  0.50000500000E+01  0.51100000000E-03 0.  1.
     100001    1    1    2    0    0  0.34401622425E-02 -0.10363907660E-01 -0.19513000839E-01  0.50000500000E+01  0.50000000000E+01 0.  0.
     100001    1    1    2    0    0 -0.34401622425E-02  0.10363907660E-01  0.19513000839E-01  0.50000500000E+01  0.50000000000E+01 0.  0.
</event>
<event>
 4    1  0.4919875E-001  0.5000050E+01  0.7818608E-02  0.2136455E+00
        -11   -1    0    0    0    0  0.00000000000E+00  0.00000000000E+00  0.50000499739E+01  0.50000500000E+01  0.51100000000E-03 0.  1.
         11   -1    0    0    0    0 -0.00000000000E+00 -0.00000000000E+00 -0.50000499739E+01  0.50000500000E+01  0.51100000000E-03 0. -1.
     100001    1    1    2    0    0 -0.14248366011E-01 -0.47703172944E-02 -0.16559910596E-01  0.50000500000E+01  0.50000000000E+01 0. -1.
     100001    1    1    2    0    0  0.14248366011E-01  0.47703172944E-02  0.16559910596E-01  0.50000500000E+01  0.50000000000E+01 0.  1.
</event>
<event>
 4    1  0.4919875E-001  0.5000050E+01  0.7818608E-02  0.2136455E+00
        -11   -1    0    0    0    0  0.00000000000E+00  0.00000000000E+00  0.50000499739E+01  0.50000500000E+01  0.51100000000E-03 0.  1.
         11   -1    0    0    0    0 -0.00000000000E+00 -0.00000000000E+00 -0.50000499739E+01  0.50000500000E+01  0.51100000000E-03 0. -1.
     100001    1    1    2    0    0 -0.86003329789E-02 -0.20153135241E-01  0.44595865941E-02  0.50000500000E+01  0.50000000000E+01 0.  1.
     100001    1    1    2    0    0  0.86003329789E-02  0.20153135241E-01 -0.44595865941E-02  0.50000500000E+01  0.50000000000E+01 0. -1.
</event>
<event>
 4    1  0.4919875E-001  0.5000050E+01  0.7818608E-02  0.2136455E+00
        -11   -1    0    0    0    0  0.00000000000E+00  0.00000000000E+00  0.50000499739E+01  0.50000500000E+01  0.51100000000E-03 0.  1.
         11   -1    0    0    0    0 -0.00000000000E+00 -0.00000000000E+00 -0.50000499739E+01  0.50000500000E+01  0.51100000000E-03 0. -1.
     100001    1    1    2    0    0  0.48524312547E-02 -0.15428363060E-01  0.15440920446E-01  0.50000500000E+01  0.50000000000E+01 0.  1.
     100001    1    1    2    0    0 -0.48524312547E-02  0.15428363060E-01 -0.15440920446E-01  0.50000500000E+01  0.50000000000E+01 0. -1.
</event>
<event>
 4    1  0.4919875E-001  0.5000050E+01  0.7818608E-02  0.2136455E+00
        -11   -1    0    0    0    0  0.00000000000E+00  0.00000000000E+00  0.50000499739E+01  0.50000500000E+01  0.51100000000E-03 0. -1.
         11   -1    0    0    0    0 -0.00000000000E+00 -0.00000000000E+00 -0.50000499739E+01  0.50000500000E+01  0.51100000000E-03 0.  1.
     100001    1    1    2    0    0  0.77457586018E-02 -0.14051779020E-01  0.15574120523E-01  0.50000500000E+01  0.50000000000E+01 0.  0.
     100001    1    1    2    0    0 -0.77457586018E-02  0.14051779020E-01 -0.15574120523E-01  0.50000500000E+01  0.50000000000E+01 0. -1.
</event>
<event>
 4    1  0.4919875E-001  0.5000050E+01  0.7818608E-02  0.2136455E+00
        -11   -1    0    0    0    0  0.00000000000E+00  0.00000000000E+00  0.50000499739E+01  0.50000500000E+01  0.51100000000E-03 0. -1.
         11   -1    0    0    0    0 -0.00000000000E+00 -0.00000000000E+00 -0.50000499739E+01  0.50000500000E+01  0.51100000000E-03 0.  1.
     100001    1    1    2    0    0  0.18018346818E-01  0.81482744778E-02  0.10437782379E-01  0.50000500000E+01  0.50000000000E+01 0. -1.
     100001    1    1    2    0    0 -0.18018346818E-01 -0.81482744778E-02 -0.10437782379E-01  0.50000500000E+01  0.50000000000E+01 0.  1.
</event>
<event>
 4    1  0.4919875E-001  0.5000050E+01  0.7818608E-02  0.2136455E+00
        -11   -1    0    0    0    0  0.00000000000E+00  0.00000000000E+00  0.50000499739E+01  0.50000500000E+01  0.51100000000E-03 0. -1.
         11   -1    0    0    0    0 -0.00000000000E+00 -0.00000000000E+00 -0.50000499739E+01  0.50000500000E+01  0.51100000000E-03 0.  1.
     100001    1    1    2    0    0 -0.16781034478E-01 -0.54340123331E-02  0.13743030663E-01  0.50000500000E+01  0.50000000000E+01 0.  0.
     100001    1    1    2    0    0  0.16781034478E-01  0.54340123331E-02 -0.13743030663E-01  0.50000500000E+01  0.50000000000E+01 0.  0.
</event>
<event>
 4    1  0.4919875E-001  0.5000050E+01  0.7818608E-02  0.2136455E+00
        -11   -1    0    0    0    0  0.00000000000E+00  0.00000000000E+00  0.50000499739E+01  0.50000500000E+01  0.51100000000E-03 0.  1.
         11   -1    0    0    0    0 -0.00000000000E+00 -0.00000000000E+00 -0.50000499739E+01  0.50000500000E+01  0.51100000000E-03 0. -1.
     100001    1    1    2    0    0 -0.20891141719E-01  0.16742800740E-02  0.77948370043E-02  0.50000500000E+01  0.50000000000E+01 0.  1.
     100001    1    1    2    0    0  0.20891141719E-01 -0.16742800740E-02 -0.77948370043E-02  0.50000500000E+01  0.50000000000E+01 0. -1.
</event>
<event>
 4    1  0.4919875E-001  0.5000050E+01  0.7818608E-02  0.2136455E+00
        -11   -1    0    0    0    0  0.00000000000E+00  0.00000000000E+00  0.50000499739E+01  0.50000500000E+01  0.51100000000E-03 0.  1.
         11   -1    0    0    0    0 -0.00000000000E+00 -0.00000000000E+00 -0.50000499739E+01  0.50000500000E+01  0.51100000000E-03 0. -1.
     100001    1    1    2    0    0  0.55899200136E-02  0.73160083356E-02  0.20377225431E-01  0.50000500000E+01  0.50000000000E+01 0.  0.
     100001    1    1    2    0    0 -0.55899200136E-02 -0.73160083356E-02 -0.20377225431E-01  0.50000500000E+01  0.50000000000E+01 0.  0.
</event>
<event>
 4    1  0.4919875E-001  0.5000050E+01  0.7818608E-02  0.2136455E+00
        -11   -1    0    0    0    0  0.00000000000E+00  0.00000000000E+00  0.50000499739E+01  0.50000500000E+01  0.51100000000E-03 0.  1.
         11   -1    0    0    0    0 -0.00000000000E+00 -0.00000000000E+00 -0.50000499739E+01  0.50000500000E+01  0.51100000000E-03 0. -1.
     100001    1    1    2    0    0 -0.12130102154E-01 -0.17929404880E-01  0.56035312402E-02  0.50000500000E+01  0.50000000000E+01 0. -1.
     100001    1    1    2    0    0  0.12130102154E-01  0.17929404880E-01 -0.56035312402E-02  0.50000500000E+01  0.50000000000E+01 0.  1.
</event>
<event>
 4    1  0.4919875E-001  0.5000050E+01  0.7818608E-02  0.2136455E+00
        -11   -1    0    0    0    0  0.00000000000E+00  0.00000000000E+00  0.50000499739E+01  0.50000500000E+01  0.51100000000E-03 0. -1.
         11   -1    0    0    0    0 -0.00000000000E+00 -0.00000000000E+00 -0.50000499739E+01  0.50000500000E+01  0.51100000000E-03 0.  1.
     100001    1    1    2    0    0 -0.30433045303E-02 -0.18899120433E-01  0.11556991147E-01  0.50000500000E+01  0.50000000000E+01 0.  0.
     100001    1    1    2    0    0  0.30433045303E-02  0.18899120433E-01 -0.11556991147E-01  0.50000500000E+01  0.50000000000E+01 0. -1.
</event>
<event>
 4    1  0.4919875E-001  0.5000050E+01  0.7818608E-02  0.2136455E+00
        -11   -1    0    0    0    0  0.00000000000E+00  0.00000000000E+00  0.50000499739E+01  0.50000500000E+01  0.51100000000E-03 0. -1.
         11   -1    0    0    0    0 -0.00000000000E+00 -0.00000000000E+00 -0.50000499739E+01  0.50000500000E+01  0.51100000000E-03 0.  1.
     100001    1    1    2    0    0  0.84936985489E-02  0.13181249407E-01 -0.15940961358E-01  0.50000500000E+01  0.50000000000E+01 0.  1.
     100001    1    1    2    0    0 -0.84936985489E-02 -0.13181249407E-01  0.15940961358E-01  0.50000500000E+01  0.50000000000E+01 0.  0.
</event>
<event>
 4    1  0.4919875E-001  0.5000050E+01  0.7818608E-02  0.2136455E+00
        -11   -1    0    0    0    0  0.00000000000E+00  0.00000000000E+00  0.50000499739E+01  0.50000500000E+01  0.51100000000E-03 0. -1.
         11   -1    0    0    0    0 -0.00000000000E+00 -0.00000000000E+00 -0.50000499739E+01  0.50000500000E+01  0.51100000000E-03 0.  1.
     100001    1    1    2    0    0 -0.72217084010E-03  0.67925763594E-02 -0.21291826499E-01  0.50000500000E+01  0.50000000000E+01 0. -1.
     100001    1    1    2    0    0  0.72217084010E-03 -0.67925763594E-02  0.21291826499E-01  0.50000500000E+01  0.50000000000E+01 0. -1.
</event>
<event>
 4    1  0.4919875E-001  0.5000050E+01  0.7818608E-02  0.2136455E+00
        -11   -1    0    0    0    0  0.00000000000E+00  0.00000000000E+00  0.50000499739E+01  0.50000500000E+01  0.51100000000E-03 0.  1.
         11   -1    0    0    0    0 -0.00000000000E+00 -0.00000000000E+00 -0.50000499739E+01  0.50000500000E+01  0.51100000000E-03 0. -1.
     100001    1    1    2    0    0  0.38398072274E-02 -0.17802643244E-01  0.12973984507E-01  0.50000500000E+01  0.50000000000E+01 0.  0.
     100001    1    1    2    0    0 -0.38398072274E-02  0.17802643244E-01 -0.12973984507E-01  0.50000500000E+01  0.50000000000E+01 0.  1.
</event>
<event>
 4    1  0.4919875E-001  0.5000050E+01  0.7818608E-02  0.2136455E+00
        -11   -1    0    0    0    0  0.00000000000E+00  0.00000000000E+00  0.50000499739E+01  0.50000500000E+01  0.51100000000E-03 0.  1.
         11   -1    0    0    0    0 -0.00000000000E+00 -0.00000000000E+00 -0.50000499739E+01  0.50000500000E+01  0.51100000000E-03 0. -1.
     100001    1    1    2    0    0  0.15685395952E-01  0.15057166325E-01 -0.52204019084E-02  0.50000500000E+01  0.50000000000E+01 0.  0.
     100001    1    1    2    0    0 -0.15685395952E-01 -0.15057166325E-01  0.52204019084E-02  0.50000500000E+01  0.50000000000E+01 0.  0.
</event>
<event>
 4    1  0.4919875E-001  0.5000050E+01  0.7818608E-02  0.2136455E+00
        -11   -1    0    0    0    0  0.00000000000E+00  0.00000000000E+00  0.50000499739E+01  0.50000500000E+01  0.51100000000E-03 0. -1.
         11   -1    0    0    0    0 -0.00000000000E+00 -0.00000000000E+00 -0.50000499739E+01  0.50000500000E+01  0.51100000000E-03 0.  1.
     100001    1    1    2    0    0 -0.10375153520E-01  0.61930363913E-02 -0.18815020321E-01  0.50000500000E+01  0.50000000000E+01 0.  0.
     100001    1    1    2    0    0  0.10375153520E-01 -0.61930363913E-02  0.18815020321E-01  0.50000500000E+01  0.50000000000E+01 0.  0.
</event>
<event>
 4    1  0.4919875E-001  0.5000050E+01  0.7818608E-02  0.2136455E+00
        -11   -1    0    0    0    0  0.00000000000E+00  0.00000000000E+00  0.50000499739E+01  0.50000500000E+01  0.51100000000E-03 0.  1.
         11   -1    0    0    0    0 -0.00000000000E+00 -0.00000000000E+00 -0.50000499739E+01  0.50000500000E+01  0.51100000000E-03 0. -1.
     100001    1    1    2    0    0 -0.10682631923E-01  0.81157973798E-02  0.17889038769E-01  0.50000500000E+01  0.50000000000E+01 0.  0.
     100001    1    1    2    0    0  0.10682631923E-01 -0.81157973798E-02 -0.17889038769E-01  0.50000500000E+01  0.50000000000E+01 0. -1.
</event>
<event>
 4    1  0.4919875E-001  0.5000050E+01  0.7818608E-02  0.2136455E+00
        -11   -1    0    0    0    0  0.00000000000E+00  0.00000000000E+00  0.50000499739E+01  0.50000500000E+01  0.51100000000E-03 0.  1.
         11   -1    0    0    0    0 -0.00000000000E+00 -0.00000000000E+00 -0.50000499739E+01  0.50000500000E+01  0.51100000000E-03 0. -1.
     100001    1    1    2    0    0 -0.67599948806E-02 -0.18991403445E-02 -0.21229654617E-01  0.50000500000E+01  0.50000000000E+01 0. -1.
     100001    1    1    2    0    0  0.67599948806E-02  0.18991403445E-02  0.21229654617E-01  0.50000500000E+01  0.50000000000E+01 0.  0.
</event>
<event>
 4    1  0.4919875E-001  0.5000050E+01  0.7818608E-02  0.2136455E+00
        -11   -1    0    0    0    0  0.00000000000E+00  0.00000000000E+00  0.50000499739E+01  0.50000500000E+01  0.51100000000E-03 0. -1.
         11   -1    0    0    0    0 -0.00000000000E+00 -0.00000000000E+00 -0.50000499739E+01  0.50000500000E+01  0.51100000000E-03 0.  1.
     100001    1    1    2    0    0 -0.20381246842E-01 -0.17803004371E-02  0.90242898613E-02  0.50000500000E+01  0.50000000000E+01 0.  0.
     100001    1    1    2    0    0  0.20381246842E-01  0.17803004371E-02 -0.90242898613E-02  0.50000500000E+01  0.50000000000E+01 0. -1.
</event>
<event>
 4    1  0.4919875E-001  0.5000050E+01  0.7818608E-02  0.2136455E+00
        -11   -1    0    0    0    0  0.00000000000E+00  0.00000000000E+00  0.50000499739E+01  0.50000500000E+01  0.51100000000E-03 0. -1.
         11   -1    0    0    0    0 -0.00000000000E+00 -0.00000000000E+00 -0.50000499739E+01  0.50000500000E+01  0.51100000000E-03 0.  1.
     100001    1    1    2    0    0  0.68548482703E-03  0.20658770476E-01  0.85292328483E-02  0.50000500000E+01  0.50000000000E+01 0.  0.
     100001    1    1    2    0    0 -0.68548482703E-03 -0.20658770476E-01 -0.85292328483E-02  0.50000500000E+01  0.50000000000E+01 0.  0.
</event>
<event>
 4    1  0.4919875E-001  0.5000050E+01  0.7818608E-02  0.2136455E+00
        -11   -1    0    0    0    0  0.00000000000E+00  0.00000000000E+00  0.50000499739E+01  0.50000500000E+01  0.51100000000E-03 0.  1.
         11   -1    0    0    0    0 -0.00000000000E+00 -0.00000000000E+00 -0.50000499739E+01  0.50000500000E+01  0.51100000000E-03 0. -1.
     100001    1    1    2    0    0  0.16483271082E-01  0.11772614393E-01 -0.94715270568E-02  0.50000500000E+01  0.50000000000E+01 0.  1.
     100001    1    1    2    0    0 -0.16483271082E-01 -0.11772614393E-01  0.94715270568E-02  0.50000500000E+01  0.50000000000E+01 0. -1.
</event>
<event>
 4    1  0.4919875E-001  0.5000050E+01  0.7818608E-02  0.2136455E+00
        -11   -1    0    0    0    0  0.00000000000E+00  0.00000000000E+00  0.50000499739E+01  0.50000500000E+01  0.51100000000E-03 0.  1.
         11   -1    0    0    0    0 -0.00000000000E+00 -0.00000000000E+00 -0.50000499739E+01  0.50000500000E+01  0.51100000000E-03 0. -1.
     100001    1    1    2    0    0  0.97725624591E-02 -0.20040382944E-01  0.16978146039E-02  0.50000500000E+01  0.50000000000E+01 0. -1.
     100001    1    1    2    0    0 -0.97725624591E-02  0.20040382944E-01 -0.16978146039E-02  0.50000500000E+01  0.50000000000E+01 0.  1.
</event>
<event>
 4    1  0.4919875E-001  0.5000050E+01  0.7818608E-02  0.2136455E+00
        -11   -1    0    0    0    0  0.00000000000E+00  0.00000000000E+00  0.50000499739E+01  0.50000500000E+01  0.51100000000E-03 0. -1.
         11   -1    0    0    0    0 -0.00000000000E+00 -0.00000000000E+00 -0.50000499739E+01  0.50000500000E+01  0.51100000000E-03 0.  1.
     100001    1    1    2    0    0 -0.27542487386E-02  0.18022953519E-01  0.12945646385E-01  0.50000500000E+01  0.50000000000E+01 0. -1.
     100001    1    1    2    0    0  0.27542487386E-02 -0.18022953519E-01 -0.12945646385E-01  0.50000500000E+01  0.50000000000E+01 0.  1.
</event>
<event>
 4    1  0.4919875E-001  0.5000050E+01  0.7818608E-02  0.2136455E+00
        -11   -1    0    0    0    0  0.00000000000E+00  0.00000000000E+00  0.50000499739E+01  0.50000500000E+01  0.51100000000E-03 0.  1.
         11   -1    0    0    0    0 -0.00000000000E+00 -0.00000000000E+00 -0.50000499739E+01  0.50000500000E+01  0.51100000000E-03 0. -1.
     100001    1    1    2    0    0  0.69688641668E-02  0.18040992889E-01  0.11223190625E-01  0.50000500000E+01  0.50000000000E+01 0.  0.
     100001    1    1    2    0    0 -0.69688641668E-02 -0.18040992889E-01 -0.11223190625E-01  0.50000500000E+01  0.50000000000E+01 0.  0.
</event>
<event>
 4    1  0.4919875E-001  0.5000050E+01  0.7818608E-02  0.2136455E+00
        -11   -1    0    0    0    0  0.00000000000E+00  0.00000000000E+00  0.50000499739E+01  0.50000500000E+01  0.51100000000E-03 0. -1.
         11   -1    0    0    0    0 -0.00000000000E+00 -0.00000000000E+00 -0.50000499739E+01  0.50000500000E+01  0.51100000000E-03 0.  1.
     100001    1    1    2    0    0  0.15313986243E-01 -0.78759822287E-02  0.14263703211E-01  0.50000500000E+01  0.50000000000E+01 0. -1.
     100001    1    1    2    0    0 -0.15313986243E-01  0.78759822287E-02 -0.14263703211E-01  0.50000500000E+01  0.50000000000E+01 0.  1.
</event>
<event>
 4    1  0.4919875E-001  0.5000050E+01  0.7818608E-02  0.2136455E+00
        -11   -1    0    0    0    0  0.00000000000E+00  0.00000000000E+00  0.50000499739E+01  0.50000500000E+01  0.51100000000E-03 0.  1.
         11   -1    0    0    0    0 -0.00000000000E+00 -0.00000000000E+00 -0.50000499739E+01  0.50000500000E+01  0.51100000000E-03 0. -1.
     100001    1    1    2    0    0 -0.20601449691E-01 -0.26180437801E-02 -0.82902724571E-02  0.50000500000E+01  0.50000000000E+01 0.  0.
     100001    1    1    2    0    0  0.20601449691E-01  0.26180437801E-02  0.82902724571E-02  0.50000500000E+01  0.50000000000E+01 0.  0.
</event>
<event>
 4    1  0.4919875E-001  0.5000050E+01  0.7818608E-02  0.2136455E+00
        -11   -1    0    0    0    0  0.00000000000E+00  0.00000000000E+00  0.50000499739E+01  0.50000500000E+01  0.51100000000E-03 0. -1.
         11   -1    0    0    0    0 -0.00000000000E+00 -0.00000000000E+00 -0.50000499739E+01  0.50000500000E+01  0.51100000000E-03 0.  1.
     100001    1    1    2    0    0 -0.16449172727E-01  0.60924522789E-02 -0.13867560774E-01  0.50000500000E+01  0.50000000000E+01 0.  0.
     100001    1    1    2    0    0  0.16449172727E-01 -0.60924522789E-02  0.13867560774E-01  0.50000500000E+01  0.50000000000E+01 0.  0.
</event>
<event>
 4    1  0.4919875E-001  0.5000050E+01  0.7818608E-02  0.2136455E+00
        -11   -1    0    0    0    0  0.00000000000E+00  0.00000000000E+00  0.50000499739E+01  0.50000500000E+01  0.51100000000E-03 0. -1.
         11   -1    0    0    0    0 -0.00000000000E+00 -0.00000000000E+00 -0.50000499739E+01  0.50000500000E+01  0.51100000000E-03 0.  1.
     100001    1    1    2    0    0 -0.10662552993E-01 -0.19554707814E-01  0.19813798126E-02  0.50000500000E+01  0.50000000000E+01 0. -1.
     100001    1    1    2    0    0  0.10662552993E-01  0.19554707814E-01 -0.19813798126E-02  0.50000500000E+01  0.50000000000E+01 0.  0.
</event>
<event>
 4    1  0.4919875E-001  0.5000050E+01  0.7818608E-02  0.2136455E+00
        -11   -1    0    0    0    0  0.00000000000E+00  0.00000000000E+00  0.50000499739E+01  0.50000500000E+01  0.51100000000E-03 0. -1.
         11   -1    0    0    0    0 -0.00000000000E+00 -0.00000000000E+00 -0.50000499739E+01  0.50000500000E+01  0.51100000000E-03 0.  1.
     100001    1    1    2    0    0  0.21322572992E-01  0.43174588675E-02  0.51681650436E-02  0.50000500000E+01  0.50000000000E+01 0.  0.
     100001    1    1    2    0    0 -0.21322572992E-01 -0.43174588675E-02 -0.51681650436E-02  0.50000500000E+01  0.50000000000E+01 0. -1.
</event>
<event>
 4    1  0.4919875E-001  0.5000050E+01  0.7818608E-02  0.2136455E+00
        -11   -1    0    0    0    0  0.00000000000E+00  0.00000000000E+00  0.50000499739E+01  0.50000500000E+01  0.51100000000E-03 0.  1.
         11   -1    0    0    0    0 -0.00000000000E+00 -0.00000000000E+00 -0.50000499739E+01  0.50000500000E+01  0.51100000000E-03 0. -1.
     100001    1    1    2    0    0 -0.41340753732E-02  0.15648684302E-01  0.15428240354E-01  0.50000500000E+01  0.50000000000E+01 0.  0.
     100001    1    1    2    0    0  0.41340753732E-02 -0.15648684302E-01 -0.15428240354E-01  0.50000500000E+01  0.50000000000E+01 0.  0.
</event>
<event>
 4    1  0.4919875E-001  0.5000050E+01  0.7818608E-02  0.2136455E+00
        -11   -1    0    0    0    0  0.00000000000E+00  0.00000000000E+00  0.50000499739E+01  0.50000500000E+01  0.51100000000E-03 0.  1.
         11   -1    0    0    0    0 -0.00000000000E+00 -0.00000000000E+00 -0.50000499739E+01  0.50000500000E+01  0.51100000000E-03 0. -1.
     100001    1    1    2    0    0 -0.19358188476E-01 -0.43600382335E-02  0.10307914704E-01  0.50000500000E+01  0.50000000000E+01 0.  0.
     100001    1    1    2    0    0  0.19358188476E-01  0.43600382335E-02 -0.10307914704E-01  0.50000500000E+01  0.50000000000E+01 0.  1.
</event>
<event>
 4    1  0.4919875E-001  0.5000050E+01  0.7818608E-02  0.2136455E+00
        -11   -1    0    0    0    0  0.00000000000E+00  0.00000000000E+00  0.50000499739E+01  0.50000500000E+01  0.51100000000E-03 0.  1.
         11   -1    0    0    0    0 -0.00000000000E+00 -0.00000000000E+00 -0.50000499739E+01  0.50000500000E+01  0.51100000000E-03 0. -1.
     100001    1    1    2    0    0 -0.14197274170E-01 -0.12285585385E-01  0.12145134741E-01  0.50000500000E+01  0.50000000000E+01 0.  0.
     100001    1    1    2    0    0  0.14197274170E-01  0.12285585385E-01 -0.12145134741E-01  0.50000500000E+01  0.50000000000E+01 0.  1.
</event>
<event>
 4    1  0.4919875E-001  0.5000050E+01  0.7818608E-02  0.2136455E+00
        -11   -1    0    0    0    0  0.00000000000E+00  0.00000000000E+00  0.50000499739E+01  0.50000500000E+01  0.51100000000E-03 0. -1.
         11   -1    0    0    0    0 -0.00000000000E+00 -0.00000000000E+00 -0.50000499739E+01  0.50000500000E+01  0.51100000000E-03 0.  1.
     100001    1    1    2    0    0  0.12715047730E-01 -0.17363530363E-01  0.60694212722E-02  0.50000500000E+01  0.50000000000E+01 0.  0.
     100001    1    1    2    0    0 -0.12715047730E-01  0.17363530363E-01 -0.60694212722E-02  0.50000500000E+01  0.50000000000E+01 0. -1.
</event>
<event>
 4    1  0.4919875E-001  0.5000050E+01  0.7818608E-02  0.2136455E+00
        -11   -1    0    0    0    0  0.00000000000E+00  0.00000000000E+00  0.50000499739E+01  0.50000500000E+01  0.51100000000E-03 0.  1.
         11   -1    0    0    0    0 -0.00000000000E+00 -0.00000000000E+00 -0.50000499739E+01  0.50000500000E+01  0.51100000000E-03 0. -1.
     100001    1    1    2    0    0  0.18462212509E-01  0.12462638337E-01 -0.19575124381E-02  0.50000500000E+01  0.50000000000E+01 0.  1.
     100001    1    1    2    0    0 -0.18462212509E-01 -0.12462638337E-01  0.19575124381E-02  0.50000500000E+01  0.50000000000E+01 0.  0.
</event>
<event>
 4    1  0.4919875E-001  0.5000050E+01  0.7818608E-02  0.2136455E+00
        -11   -1    0    0    0    0  0.00000000000E+00  0.00000000000E+00  0.50000499739E+01  0.50000500000E+01  0.51100000000E-03 0.  1.
         11   -1    0    0    0    0 -0.00000000000E+00 -0.00000000000E+00 -0.50000499739E+01  0.50000500000E+01  0.51100000000E-03 0. -1.
     100001    1    1    2    0    0  0.11233691134E-01  0.10106305290E-01  0.16482392936E-01  0.50000500000E+01  0.50000000000E+01 0. -1.
     100001    1    1    2    0    0 -0.11233691134E-01 -0.10106305290E-01 -0.16482392936E-01  0.50000500000E+01  0.50000000000E+01 0. -1.
</event>
<event>
 4    1  0.4919875E-001  0.5000050E+01  0.7818608E-02  0.2136455E+00
        -11   -1    0    0    0    0  0.00000000000E+00  0.00000000000E+00  0.50000499739E+01  0.50000500000E+01  0.51100000000E-03 0.  1.
         11   -1    0    0    0    0 -0.00000000000E+00 -0.00000000000E+00 -0.50000499739E+01  0.50000500000E+01  0.51100000000E-03 0. -1.
     100001    1    1    2    0    0  0.99831157989E-02  0.67485589335E-02  0.18836051902E-01  0.50000500000E+01  0.50000000000E+01 0.  1.
     100001    1    1    2    0    0 -0.99831157989E-02 -0.67485589335E-02 -0.18836051902E-01  0.50000500000E+01  0.50000000000E+01 0.  0.
</event>
<event>
 4    1  0.4919875E-001  0.5000050E+01  0.7818608E-02  0.2136455E+00
        -11   -1    0    0    0    0  0.00000000000E+00  0.00000000000E+00  0.50000499739E+01  0.50000500000E+01  0.51100000000E-03 0.  1.
         11   -1    0    0    0    0 -0.00000000000E+00 -0.00000000000E+00 -0.50000499739E+01  0.50000500000E+01  0.51100000000E-03 0. -1.
     100001    1    1    2    0    0  0.56896966677E-02 -0.13328491402E-01 -0.17028833453E-01  0.50000500000E+01  0.50000000000E+01 0.  0.
     100001    1    1    2    0    0 -0.56896966677E-02  0.13328491402E-01  0.17028833453E-01  0.50000500000E+01  0.50000000000E+01 0.  1.
</event>
<event>
 4    1  0.4919875E-001  0.5000050E+01  0.7818608E-02  0.2136455E+00
        -11   -1    0    0    0    0  0.00000000000E+00  0.00000000000E+00  0.50000499739E+01  0.50000500000E+01  0.51100000000E-03 0. -1.
         11   -1    0    0    0    0 -0.00000000000E+00 -0.00000000000E+00 -0.50000499739E+01  0.50000500000E+01  0.51100000000E-03 0.  1.
     100001    1    1    2    0    0  0.15527603320E-01  0.11586046670E-01  0.11165104464E-01  0.50000500000E+01  0.50000000000E+01 0. -1.
     100001    1    1    2    0    0 -0.15527603320E-01 -0.11586046670E-01 -0.11165104464E-01  0.50000500000E+01  0.50000000000E+01 0.  1.
</event>
<event>
 4    1  0.4919875E-001  0.5000050E+01  0.7818608E-02  0.2136455E+00
        -11   -1    0    0    0    0  0.00000000000E+00  0.00000000000E+00  0.50000499739E+01  0.50000500000E+01  0.51100000000E-03 0. -1.
         11   -1    0    0    0    0 -0.00000000000E+00 -0.00000000000E+00 -0.50000499739E+01  0.50000500000E+01  0.51100000000E-03 0.  1.
     100001    1    1    2    0    0  0.17643160641E-02 -0.20912123439E-01  0.77183406298E-02  0.50000500000E+01  0.50000000000E+01 0.  0.
     100001    1    1    2    0    0 -0.17643160641E-02  0.20912123439E-01 -0.77183406298E-02  0.50000500000E+01  0.50000000000E+01 0.  0.
</event>
<event>
 4    1  0.4919875E-001  0.5000050E+01  0.7818608E-02  0.2136455E+00
        -11   -1    0    0    0    0  0.00000000000E+00  0.00000000000E+00  0.50000499739E+01  0.50000500000E+01  0.51100000000E-03 0. -1.
         11   -1    0    0    0    0 -0.00000000000E+00 -0.00000000000E+00 -0.50000499739E+01  0.50000500000E+01  0.51100000000E-03 0.  1.
     100001    1    1    2    0    0  0.10236320787E-01  0.99572821173E-02 -0.17206765227E-01  0.50000500000E+01  0.50000000000E+01 0.  0.
     100001    1    1    2    0    0 -0.10236320787E-01 -0.99572821173E-02  0.17206765227E-01  0.50000500000E+01  0.50000000000E+01 0. -1.
</event>
<event>
 4    1  0.4919875E-001  0.5000050E+01  0.7818608E-02  0.2136455E+00
        -11   -1    0    0    0    0  0.00000000000E+00  0.00000000000E+00  0.50000499739E+01  0.50000500000E+01  0.51100000000E-03 0.  1.
         11   -1    0    0    0    0 -0.00000000000E+00 -0.00000000000E+00 -0.50000499739E+01  0.50000500000E+01  0.51100000000E-03 0. -1.
     100001    1    1    2    0    0 -0.17949268389E-01 -0.13090777755E-01  0.25412205863E-02  0.50000500000E+01  0.50000000000E+01 0. -1.
     100001    1    1    2    0    0  0.17949268389E-01  0.13090777755E-01 -0.25412205863E-02  0.50000500000E+01  0.50000000000E+01 0.  0.
</event>
<event>
 4    1  0.4919875E-001  0.5000050E+01  0.7818608E-02  0.2136455E+00
        -11   -1    0    0    0    0  0.00000000000E+00  0.00000000000E+00  0.50000499739E+01  0.50000500000E+01  0.51100000000E-03 0.  1.
         11   -1    0    0    0    0 -0.00000000000E+00 -0.00000000000E+00 -0.50000499739E+01  0.50000500000E+01  0.51100000000E-03 0. -1.
     100001    1    1    2    0    0  0.93186189032E-02  0.10598768840E-01  0.17344507511E-01  0.50000500000E+01  0.50000000000E+01 0.  1.
     100001    1    1    2    0    0 -0.93186189032E-02 -0.10598768840E-01 -0.17344507511E-01  0.50000500000E+01  0.50000000000E+01 0. -1.
</event>
<event>
 4    1  0.4919875E-001  0.5000050E+01  0.7818608E-02  0.2136455E+00
        -11   -1    0    0    0    0  0.00000000000E+00  0.00000000000E+00  0.50000499739E+01  0.50000500000E+01  0.51100000000E-03 0.  1.
         11   -1    0    0    0    0 -0.00000000000E+00 -0.00000000000E+00 -0.50000499739E+01  0.50000500000E+01  0.51100000000E-03 0. -1.
     100001    1    1    2    0    0  0.19019673367E-01 -0.18712022605E-02 -0.11608321460E-01  0.50000500000E+01  0.50000000000E+01 0.  1.
     100001    1    1    2    0    0 -0.19019673367E-01  0.18712022605E-02  0.11608321460E-01  0.50000500000E+01  0.50000000000E+01 0.  0.
</event>
<event>
 4    1  0.4919875E-001  0.5000050E+01  0.7818608E-02  0.2136455E+00
        -11   -1    0    0    0    0  0.00000000000E+00  0.00000000000E+00  0.50000499739E+01  0.50000500000E+01  0.51100000000E-03 0.  1.
         11   -1    0    0    0    0 -0.00000000000E+00 -0.00000000000E+00 -0.50000499739E+01  0.50000500000E+01  0.51100000000E-03 0. -1.
     100001    1    1    2    0    0  0.15700493805E-01  0.66351906170E-02 -0.14473121285E-01  0.50000500000E+01  0.50000000000E+01 0.  1.
     100001    1    1    2    0    0 -0.15700493805E-01 -0.66351906170E-02  0.14473121285E-01  0.50000500000E+01  0.50000000000E+01 0.  0.
</event>
<event>
 4    1  0.4919875E-001  0.5000050E+01  0.7818608E-02  0.2136455E+00
        -11   -1    0    0    0    0  0.00000000000E+00  0.00000000000E+00  0.50000499739E+01  0.50000500000E+01  0.51100000000E-03 0.  1.
         11   -1    0    0    0    0 -0.00000000000E+00 -0.00000000000E+00 -0.50000499739E+01  0.50000500000E+01  0.51100000000E-03 0. -1.
     100001    1    1    2    0    0  0.21858047375E-01 -0.44543303700E-02 -0.15450585434E-02  0.50000500000E+01  0.50000000000E+01 0. -1.
     100001    1    1    2    0    0 -0.21858047375E-01  0.44543303700E-02  0.15450585434E-02  0.50000500000E+01  0.50000000000E+01 0.  1.
</event>
<event>
 4    1  0.4919875E-001  0.5000050E+01  0.7818608E-02  0.2136455E+00
        -11   -1    0    0    0    0  0.00000000000E+00  0.00000000000E+00  0.50000499739E+01  0.50000500000E+01  0.51100000000E-03 0.  1.
         11   -1    0    0    0    0 -0.00000000000E+00 -0.00000000000E+00 -0.50000499739E+01  0.50000500000E+01  0.51100000000E-03 0. -1.
     100001    1    1    2    0    0 -0.17579351829E-01  0.11130166892E-01  0.81907432031E-02  0.50000500000E+01  0.50000000000E+01 0.  1.
     100001    1    1    2    0    0  0.17579351829E-01 -0.11130166892E-01 -0.81907432031E-02  0.50000500000E+01  0.50000000000E+01 0. -1.
</event>
<event>
 4    1  0.4919875E-001  0.5000050E+01  0.7818608E-02  0.2136455E+00
        -11   -1    0    0    0    0  0.00000000000E+00  0.00000000000E+00  0.50000499739E+01  0.50000500000E+01  0.51100000000E-03 0.  1.
         11   -1    0    0    0    0 -0.00000000000E+00 -0.00000000000E+00 -0.50000499739E+01  0.50000500000E+01  0.51100000000E-03 0. -1.
     100001    1    1    2    0    0  0.14216163052E-01 -0.82592379671E-03  0.17240100289E-01  0.50000500000E+01  0.50000000000E+01 0.  1.
     100001    1    1    2    0    0 -0.14216163052E-01  0.82592379671E-03 -0.17240100289E-01  0.50000500000E+01  0.50000000000E+01 0. -1.
</event>
<event>
 4    1  0.4919875E-001  0.5000050E+01  0.7818608E-02  0.2136455E+00
        -11   -1    0    0    0    0  0.00000000000E+00  0.00000000000E+00  0.50000499739E+01  0.50000500000E+01  0.51100000000E-03 0. -1.
         11   -1    0    0    0    0 -0.00000000000E+00 -0.00000000000E+00 -0.50000499739E+01  0.50000500000E+01  0.51100000000E-03 0.  1.
     100001    1    1    2    0    0 -0.17081419775E-01  0.12962010475E-01  0.63414417072E-02  0.50000500000E+01  0.50000000000E+01 0.  1.
     100001    1    1    2    0    0  0.17081419775E-01 -0.12962010475E-01 -0.63414417072E-02  0.50000500000E+01  0.50000000000E+01 0.  0.
</event>
<event>
 4    1  0.4919875E-001  0.5000050E+01  0.7818608E-02  0.2136455E+00
        -11   -1    0    0    0    0  0.00000000000E+00  0.00000000000E+00  0.50000499739E+01  0.50000500000E+01  0.51100000000E-03 0. -1.
         11   -1    0    0    0    0 -0.00000000000E+00 -0.00000000000E+00 -0.50000499739E+01  0.50000500000E+01  0.51100000000E-03 0.  1.
     100001    1    1    2    0    0  0.21354095906E-01  0.91402839176E-03  0.65703607300E-02  0.50000500000E+01  0.50000000000E+01 0.  1.
     100001    1    1    2    0    0 -0.21354095906E-01 -0.91402839176E-03 -0.65703607300E-02  0.50000500000E+01  0.50000000000E+01 0.  0.
</event>
<event>
 4    1  0.4919875E-001  0.5000050E+01  0.7818608E-02  0.2136455E+00
        -11   -1    0    0    0    0  0.00000000000E+00  0.00000000000E+00  0.50000499739E+01  0.50000500000E+01  0.51100000000E-03 0.  1.
         11   -1    0    0    0    0 -0.00000000000E+00 -0.00000000000E+00 -0.50000499739E+01  0.50000500000E+01  0.51100000000E-03 0. -1.
     100001    1    1    2    0    0  0.18651698502E-01  0.11217922911E-01 -0.51258997792E-02  0.50000500000E+01  0.50000000000E+01 0.  1.
     100001    1    1    2    0    0 -0.18651698502E-01 -0.11217922911E-01  0.51258997792E-02  0.50000500000E+01  0.50000000000E+01 0. -1.
</event>
<event>
 4    1  0.4919875E-001  0.5000050E+01  0.7818608E-02  0.2136455E+00
        -11   -1    0    0    0    0  0.00000000000E+00  0.00000000000E+00  0.50000499739E+01  0.50000500000E+01  0.51100000000E-03 0.  1.
         11   -1    0    0    0    0 -0.00000000000E+00 -0.00000000000E+00 -0.50000499739E+01  0.50000500000E+01  0.51100000000E-03 0. -1.
     100001    1    1    2    0    0 -0.11327372834E-01  0.92968476980E-02  0.16889693530E-01  0.50000500000E+01  0.50000000000E+01 0.  0.
     100001    1    1    2    0    0  0.11327372834E-01 -0.92968476980E-02 -0.16889693530E-01  0.50000500000E+01  0.50000000000E+01 0.  0.
</event>
<event>
 4    1  0.4919875E-001  0.5000050E+01  0.7818608E-02  0.2136455E+00
        -11   -1    0    0    0    0  0.00000000000E+00  0.00000000000E+00  0.50000499739E+01  0.50000500000E+01  0.51100000000E-03 0.  1.
         11   -1    0    0    0    0 -0.00000000000E+00 -0.00000000000E+00 -0.50000499739E+01  0.50000500000E+01  0.51100000000E-03 0. -1.
     100001    1    1    2    0    0 -0.17380197720E-01 -0.47611548655E-02 -0.13238679373E-01  0.50000500000E+01  0.50000000000E+01 0.  1.
     100001    1    1    2    0    0  0.17380197720E-01  0.47611548655E-02  0.13238679373E-01  0.50000500000E+01  0.50000000000E+01 0.  1.
</event>
<event>
 4    1  0.4919875E-001  0.5000050E+01  0.7818608E-02  0.2136455E+00
        -11   -1    0    0    0    0  0.00000000000E+00  0.00000000000E+00  0.50000499739E+01  0.50000500000E+01  0.51100000000E-03 0.  1.
         11   -1    0    0    0    0 -0.00000000000E+00 -0.00000000000E+00 -0.50000499739E+01  0.50000500000E+01  0.51100000000E-03 0. -1.
     100001    1    1    2    0    0 -0.11085531182E-02  0.92236482185E-03 -0.22314185020E-01  0.50000500000E+01  0.50000000000E+01 0. -1.
     100001    1    1    2    0    0  0.11085531182E-02 -0.92236482185E-03  0.22314185020E-01  0.50000500000E+01  0.50000000000E+01 0.  0.
</event>
<event>
 4    1  0.4919875E-001  0.5000050E+01  0.7818608E-02  0.2136455E+00
        -11   -1    0    0    0    0  0.00000000000E+00  0.00000000000E+00  0.50000499739E+01  0.50000500000E+01  0.51100000000E-03 0.  1.
         11   -1    0    0    0    0 -0.00000000000E+00 -0.00000000000E+00 -0.50000499739E+01  0.50000500000E+01  0.51100000000E-03 0. -1.
     100001    1    1    2    0    0 -0.95552813450E-02  0.13178437999E-01 -0.15330618720E-01  0.50000500000E+01  0.50000000000E+01 0.  0.
     100001    1    1    2    0    0  0.95552813450E-02 -0.13178437999E-01  0.15330618720E-01  0.50000500000E+01  0.50000000000E+01 0.  0.
</event>
<event>
 4    1  0.4919875E-001  0.5000050E+01  0.7818608E-02  0.2136455E+00
        -11   -1    0    0    0    0  0.00000000000E+00  0.00000000000E+00  0.50000499739E+01  0.50000500000E+01  0.51100000000E-03 0.  1.
         11   -1    0    0    0    0 -0.00000000000E+00 -0.00000000000E+00 -0.50000499739E+01  0.50000500000E+01  0.51100000000E-03 0. -1.
     100001    1    1    2    0    0 -0.15838808114E-01 -0.47919864345E-02 -0.15039000084E-01  0.50000500000E+01  0.50000000000E+01 0. -1.
     100001    1    1    2    0    0  0.15838808114E-01  0.47919864345E-02  0.15039000084E-01  0.50000500000E+01  0.50000000000E+01 0.  1.
</event>
<event>
 4    1  0.4919875E-001  0.5000050E+01  0.7818608E-02  0.2136455E+00
        -11   -1    0    0    0    0  0.00000000000E+00  0.00000000000E+00  0.50000499739E+01  0.50000500000E+01  0.51100000000E-03 0. -1.
         11   -1    0    0    0    0 -0.00000000000E+00 -0.00000000000E+00 -0.50000499739E+01  0.50000500000E+01  0.51100000000E-03 0.  1.
     100001    1    1    2    0    0 -0.22253897490E-01 -0.29060340238E-03 -0.21638151848E-02  0.50000500000E+01  0.50000000000E+01 0.  1.
     100001    1    1    2    0    0  0.22253897490E-01  0.29060340238E-03  0.21638151848E-02  0.50000500000E+01  0.50000000000E+01 0. -1.
</event>
<event>
 4    1  0.4919875E-001  0.5000050E+01  0.7818608E-02  0.2136455E+00
        -11   -1    0    0    0    0  0.00000000000E+00  0.00000000000E+00  0.50000499739E+01  0.50000500000E+01  0.51100000000E-03 0.  1.
         11   -1    0    0    0    0 -0.00000000000E+00 -0.00000000000E+00 -0.50000499739E+01  0.50000500000E+01  0.51100000000E-03 0. -1.
     100001    1    1    2    0    0  0.61432853394E-03 -0.68874901189E-02 -0.21264702686E-01  0.50000500000E+01  0.50000000000E+01 0.  0.
     100001    1    1    2    0    0 -0.61432853394E-03  0.68874901189E-02  0.21264702686E-01  0.50000500000E+01  0.50000000000E+01 0.  1.
</event>
<event>
 4    1  0.4919875E-001  0.5000050E+01  0.7818608E-02  0.2136455E+00
        -11   -1    0    0    0    0  0.00000000000E+00  0.00000000000E+00  0.50000499739E+01  0.50000500000E+01  0.51100000000E-03 0.  1.
         11   -1    0    0    0    0 -0.00000000000E+00 -0.00000000000E+00 -0.50000499739E+01  0.50000500000E+01  0.51100000000E-03 0. -1.
     100001    1    1    2    0    0 -0.10399632276E-01  0.18305953785E-01  0.75327421670E-02  0.50000500000E+01  0.50000000000E+01 0.  1.
     100001    1    1    2    0    0  0.10399632276E-01 -0.18305953785E-01 -0.75327421670E-02  0.50000500000E+01  0.50000000000E+01 0. -1.
</event>
<event>
 4    1  0.4919875E-001  0.5000050E+01  0.7818608E-02  0.2136455E+00
        -11   -1    0    0    0    0  0.00000000000E+00  0.00000000000E+00  0.50000499739E+01  0.50000500000E+01  0.51100000000E-03 0.  1.
         11   -1    0    0    0    0 -0.00000000000E+00 -0.00000000000E+00 -0.50000499739E+01  0.50000500000E+01  0.51100000000E-03 0. -1.
     100001    1    1    2    0    0 -0.41260519096E-02 -0.15708173122E-01  0.15369824098E-01  0.50000500000E+01  0.50000000000E+01 0.  0.
     100001    1    1    2    0    0  0.41260519096E-02  0.15708173122E-01 -0.15369824098E-01  0.50000500000E+01  0.50000000000E+01 0.  0.
</event>
<event>
 4    1  0.4919875E-001  0.5000050E+01  0.7818608E-02  0.2136455E+00
        -11   -1    0    0    0    0  0.00000000000E+00  0.00000000000E+00  0.50000499739E+01  0.50000500000E+01  0.51100000000E-03 0.  1.
         11   -1    0    0    0    0 -0.00000000000E+00 -0.00000000000E+00 -0.50000499739E+01  0.50000500000E+01  0.51100000000E-03 0. -1.
     100001    1    1    2    0    0  0.17445010671E-01  0.10319731540E-01 -0.94433703538E-02  0.50000500000E+01  0.50000000000E+01 0.  0.
     100001    1    1    2    0    0 -0.17445010671E-01 -0.10319731540E-01  0.94433703538E-02  0.50000500000E+01  0.50000000000E+01 0. -1.
</event>
<event>
 4    1  0.4919875E-001  0.5000050E+01  0.7818608E-02  0.2136455E+00
        -11   -1    0    0    0    0  0.00000000000E+00  0.00000000000E+00  0.50000499739E+01  0.50000500000E+01  0.51100000000E-03 0. -1.
         11   -1    0    0    0    0 -0.00000000000E+00 -0.00000000000E+00 -0.50000499739E+01  0.50000500000E+01  0.51100000000E-03 0.  1.
     100001    1    1    2    0    0  0.99990980406E-02 -0.18481206557E-01 -0.76462763855E-02  0.50000500000E+01  0.50000000000E+01 0.  1.
     100001    1    1    2    0    0 -0.99990980406E-02  0.18481206557E-01  0.76462763855E-02  0.50000500000E+01  0.50000000000E+01 0.  0.
</event>
<event>
 4    1  0.4919875E-001  0.5000050E+01  0.7818608E-02  0.2136455E+00
        -11   -1    0    0    0    0  0.00000000000E+00  0.00000000000E+00  0.50000499739E+01  0.50000500000E+01  0.51100000000E-03 0. -1.
         11   -1    0    0    0    0 -0.00000000000E+00 -0.00000000000E+00 -0.50000499739E+01  0.50000500000E+01  0.51100000000E-03 0.  1.
     100001    1    1    2    0    0 -0.17362054364E-01  0.11981228703E-01 -0.74169890809E-02  0.50000500000E+01  0.50000000000E+01 0. -1.
     100001    1    1    2    0    0  0.17362054364E-01 -0.11981228703E-01  0.74169890809E-02  0.50000500000E+01  0.50000000000E+01 0.  0.
</event>
<event>
 4    1  0.4919875E-001  0.5000050E+01  0.7818608E-02  0.2136455E+00
        -11   -1    0    0    0    0  0.00000000000E+00  0.00000000000E+00  0.50000499739E+01  0.50000500000E+01  0.51100000000E-03 0. -1.
         11   -1    0    0    0    0 -0.00000000000E+00 -0.00000000000E+00 -0.50000499739E+01  0.50000500000E+01  0.51100000000E-03 0.  1.
     100001    1    1    2    0    0 -0.72672176276E-02  0.94712527522E-02  0.18907284820E-01  0.50000500000E+01  0.50000000000E+01 0. -1.
     100001    1    1    2    0    0  0.72672176276E-02 -0.94712527522E-02 -0.18907284820E-01  0.50000500000E+01  0.50000000000E+01 0.  0.
</event>
<event>
 4    1  0.4919875E-001  0.5000050E+01  0.7818608E-02  0.2136455E+00
        -11   -1    0    0    0    0  0.00000000000E+00  0.00000000000E+00  0.50000499739E+01  0.50000500000E+01  0.51100000000E-03 0. -1.
         11   -1    0    0    0    0 -0.00000000000E+00 -0.00000000000E+00 -0.50000499739E+01  0.50000500000E+01  0.51100000000E-03 0.  1.
     100001    1    1    2    0    0  0.14415252342E-02 -0.21950587221E-01 -0.40120101745E-02  0.50000500000E+01  0.50000000000E+01 0.  1.
     100001    1    1    2    0    0 -0.14415252342E-02  0.21950587221E-01  0.40120101745E-02  0.50000500000E+01  0.50000000000E+01 0. -1.
</event>
<event>
 4    1  0.4919875E-001  0.5000050E+01  0.7818608E-02  0.2136455E+00
        -11   -1    0    0    0    0  0.00000000000E+00  0.00000000000E+00  0.50000499739E+01  0.50000500000E+01  0.51100000000E-03 0.  1.
         11   -1    0    0    0    0 -0.00000000000E+00 -0.00000000000E+00 -0.50000499739E+01  0.50000500000E+01  0.51100000000E-03 0. -1.
     100001    1    1    2    0    0  0.58421076396E-02  0.82659120010E-02 -0.19938580118E-01  0.50000500000E+01  0.50000000000E+01 0.  0.
     100001    1    1    2    0    0 -0.58421076396E-02 -0.82659120010E-02  0.19938580118E-01  0.50000500000E+01  0.50000000000E+01 0.  1.
</event>
<event>
 4    1  0.4919875E-001  0.5000050E+01  0.7818608E-02  0.2136455E+00
        -11   -1    0    0    0    0  0.00000000000E+00  0.00000000000E+00  0.50000499739E+01  0.50000500000E+01  0.51100000000E-03 0. -1.
         11   -1    0    0    0    0 -0.00000000000E+00 -0.00000000000E+00 -0.50000499739E+01  0.50000500000E+01  0.51100000000E-03 0.  1.
     100001    1    1    2    0    0 -0.10562049325E-01  0.19621408311E-01 -0.18563270013E-02  0.50000500000E+01  0.50000000000E+01 0.  1.
     100001    1    1    2    0    0  0.10562049325E-01 -0.19621408311E-01  0.18563270013E-02  0.50000500000E+01  0.50000000000E+01 0. -1.
</event>
<event>
 4    1  0.4919875E-001  0.5000050E+01  0.7818608E-02  0.2136455E+00
        -11   -1    0    0    0    0  0.00000000000E+00  0.00000000000E+00  0.50000499739E+01  0.50000500000E+01  0.51100000000E-03 0.  1.
         11   -1    0    0    0    0 -0.00000000000E+00 -0.00000000000E+00 -0.50000499739E+01  0.50000500000E+01  0.51100000000E-03 0. -1.
     100001    1    1    2    0    0  0.60957641978E-02 -0.22974266201E-02  0.21390792173E-01  0.50000500000E+01  0.50000000000E+01 0.  0.
     100001    1    1    2    0    0 -0.60957641978E-02  0.22974266201E-02 -0.21390792173E-01  0.50000500000E+01  0.50000000000E+01 0.  0.
</event>
<event>
 4    1  0.4919875E-001  0.5000050E+01  0.7818608E-02  0.2136455E+00
        -11   -1    0    0    0    0  0.00000000000E+00  0.00000000000E+00  0.50000499739E+01  0.50000500000E+01  0.51100000000E-03 0. -1.
         11   -1    0    0    0    0 -0.00000000000E+00 -0.00000000000E+00 -0.50000499739E+01  0.50000500000E+01  0.51100000000E-03 0.  1.
     100001    1    1    2    0    0  0.15839990718E-01  0.15735405870E-01  0.12223731592E-02  0.50000500000E+01  0.50000000000E+01 0.  1.
     100001    1    1    2    0    0 -0.15839990718E-01 -0.15735405870E-01 -0.12223731592E-02  0.50000500000E+01  0.50000000000E+01 0.  0.
</event>
<event>
 4    1  0.4919875E-001  0.5000050E+01  0.7818608E-02  0.2136455E+00
        -11   -1    0    0    0    0  0.00000000000E+00  0.00000000000E+00  0.50000499739E+01  0.50000500000E+01  0.51100000000E-03 0. -1.
         11   -1    0    0    0    0 -0.00000000000E+00 -0.00000000000E+00 -0.50000499739E+01  0.50000500000E+01  0.51100000000E-03 0.  1.
     100001    1    1    2    0    0 -0.19306891832E-01  0.95874028687E-02 -0.59437474728E-02  0.50000500000E+01  0.50000000000E+01 0.  1.
     100001    1    1    2    0    0  0.19306891832E-01 -0.95874028687E-02  0.59437474728E-02  0.50000500000E+01  0.50000000000E+01 0. -1.
</event>
<event>
 4    1  0.4919875E-001  0.5000050E+01  0.7818608E-02  0.2136455E+00
        -11   -1    0    0    0    0  0.00000000000E+00  0.00000000000E+00  0.50000499739E+01  0.50000500000E+01  0.51100000000E-03 0. -1.
         11   -1    0    0    0    0 -0.00000000000E+00 -0.00000000000E+00 -0.50000499739E+01  0.50000500000E+01  0.51100000000E-03 0.  1.
     100001    1    1    2    0    0 -0.26773009912E-02  0.22002726489E-01 -0.29520478399E-02  0.50000500000E+01  0.50000000000E+01 0.  0.
     100001    1    1    2    0    0  0.26773009912E-02 -0.22002726489E-01  0.29520478399E-02  0.50000500000E+01  0.50000000000E+01 0. -1.
</event>
<event>
 4    1  0.4919875E-001  0.5000050E+01  0.7818608E-02  0.2136455E+00
        -11   -1    0    0    0    0  0.00000000000E+00  0.00000000000E+00  0.50000499739E+01  0.50000500000E+01  0.51100000000E-03 0.  1.
         11   -1    0    0    0    0 -0.00000000000E+00 -0.00000000000E+00 -0.50000499739E+01  0.50000500000E+01  0.51100000000E-03 0. -1.
     100001    1    1    2    0    0 -0.46252982032E-02 -0.37572197608E-02 -0.21552086122E-01  0.50000500000E+01  0.50000000000E+01 0. -1.
     100001    1    1    2    0    0  0.46252982032E-02  0.37572197608E-02  0.21552086122E-01  0.50000500000E+01  0.50000000000E+01 0.  0.
</event>
<event>
 4    1  0.4919875E-001  0.5000050E+01  0.7818608E-02  0.2136455E+00
        -11   -1    0    0    0    0  0.00000000000E+00  0.00000000000E+00  0.50000499739E+01  0.50000500000E+01  0.51100000000E-03 0. -1.
         11   -1    0    0    0    0 -0.00000000000E+00 -0.00000000000E+00 -0.50000499739E+01  0.50000500000E+01  0.51100000000E-03 0.  1.
     100001    1    1    2    0    0 -0.21552876559E-01  0.21716458733E-02  0.55461668056E-02  0.50000500000E+01  0.50000000000E+01 0. -1.
     100001    1    1    2    0    0  0.21552876559E-01 -0.21716458733E-02 -0.55461668056E-02  0.50000500000E+01  0.50000000000E+01 0.  1.
</event>
<event>
 4    1  0.4919875E-001  0.5000050E+01  0.7818608E-02  0.2136455E+00
        -11   -1    0    0    0    0  0.00000000000E+00  0.00000000000E+00  0.50000499739E+01  0.50000500000E+01  0.51100000000E-03 0. -1.
         11   -1    0    0    0    0 -0.00000000000E+00 -0.00000000000E+00 -0.50000499739E+01  0.50000500000E+01  0.51100000000E-03 0.  1.
     100001    1    1    2    0    0 -0.11334316486E-01  0.18161528260E-04  0.19275254602E-01  0.50000500000E+01  0.50000000000E+01 0.  0.
     100001    1    1    2    0    0  0.11334316486E-01 -0.18161528260E-04 -0.19275254602E-01  0.50000500000E+01  0.50000000000E+01 0.  1.
</event>
<event>
 4    1  0.4919875E-001  0.5000050E+01  0.7818608E-02  0.2136455E+00
        -11   -1    0    0    0    0  0.00000000000E+00  0.00000000000E+00  0.50000499739E+01  0.50000500000E+01  0.51100000000E-03 0. -1.
         11   -1    0    0    0    0 -0.00000000000E+00 -0.00000000000E+00 -0.50000499739E+01  0.50000500000E+01  0.51100000000E-03 0.  1.
     100001    1    1    2    0    0 -0.61178105789E-02  0.44182563712E-02  0.21048845678E-01  0.50000500000E+01  0.50000000000E+01 0.  0.
     100001    1    1    2    0    0  0.61178105789E-02 -0.44182563712E-02 -0.21048845678E-01  0.50000500000E+01  0.50000000000E+01 0.  1.
</event>
<event>
 4    1  0.4919875E-001  0.5000050E+01  0.7818608E-02  0.2136455E+00
        -11   -1    0    0    0    0  0.00000000000E+00  0.00000000000E+00  0.50000499739E+01  0.50000500000E+01  0.51100000000E-03 0.  1.
         11   -1    0    0    0    0 -0.00000000000E+00 -0.00000000000E+00 -0.50000499739E+01  0.50000500000E+01  0.51100000000E-03 0. -1.
     100001    1    1    2    0    0  0.13625927889E-03 -0.53388227291E-02 -0.21713611060E-01  0.50000500000E+01  0.50000000000E+01 0.  0.
     100001    1    1    2    0    0 -0.13625927889E-03  0.53388227291E-02  0.21713611060E-01  0.50000500000E+01  0.50000000000E+01 0.  1.
</event>
<event>
 4    1  0.4919875E-001  0.5000050E+01  0.7818608E-02  0.2136455E+00
        -11   -1    0    0    0    0  0.00000000000E+00  0.00000000000E+00  0.50000499739E+01  0.50000500000E+01  0.51100000000E-03 0. -1.
         11   -1    0    0    0    0 -0.00000000000E+00 -0.00000000000E+00 -0.50000499739E+01  0.50000500000E+01  0.51100000000E-03 0.  1.
     100001    1    1    2    0    0 -0.17818997362E-01 -0.33620865029E-02  0.13083661848E-01  0.50000500000E+01  0.50000000000E+01 0.  0.
     100001    1    1    2    0    0  0.17818997362E-01  0.33620865029E-02 -0.13083661848E-01  0.50000500000E+01  0.50000000000E+01 0.  0.
</event>
<event>
 4    1  0.4919875E-001  0.5000050E+01  0.7818608E-02  0.2136455E+00
        -11   -1    0    0    0    0  0.00000000000E+00  0.00000000000E+00  0.50000499739E+01  0.50000500000E+01  0.51100000000E-03 0.  1.
         11   -1    0    0    0    0 -0.00000000000E+00 -0.00000000000E+00 -0.50000499739E+01  0.50000500000E+01  0.51100000000E-03 0. -1.
     100001    1    1    2    0    0 -0.18956068925E-01 -0.10249891972E-01  0.59673834685E-02  0.50000500000E+01  0.50000000000E+01 0.  0.
     100001    1    1    2    0    0  0.18956068925E-01  0.10249891972E-01 -0.59673834685E-02  0.50000500000E+01  0.50000000000E+01 0.  1.
</event>
<event>
 4    1  0.4919875E-001  0.5000050E+01  0.7818608E-02  0.2136455E+00
        -11   -1    0    0    0    0  0.00000000000E+00  0.00000000000E+00  0.50000499739E+01  0.50000500000E+01  0.51100000000E-03 0. -1.
         11   -1    0    0    0    0 -0.00000000000E+00 -0.00000000000E+00 -0.50000499739E+01  0.50000500000E+01  0.51100000000E-03 0.  1.
     100001    1    1    2    0    0  0.36075986647E-02 -0.86647982531E-02 -0.20295541459E-01  0.50000500000E+01  0.50000000000E+01 0.  1.
     100001    1    1    2    0    0 -0.36075986647E-02  0.86647982531E-02  0.20295541459E-01  0.50000500000E+01  0.50000000000E+01 0. -1.
</event>
<event>
 4    1  0.4919875E-001  0.5000050E+01  0.7818608E-02  0.2136455E+00
        -11   -1    0    0    0    0  0.00000000000E+00  0.00000000000E+00  0.50000499739E+01  0.50000500000E+01  0.51100000000E-03 0.  1.
         11   -1    0    0    0    0 -0.00000000000E+00 -0.00000000000E+00 -0.50000499739E+01  0.50000500000E+01  0.51100000000E-03 0. -1.
     100001    1    1    2    0    0  0.65675503079E-03 -0.33548714878E-02 -0.22097873430E-01  0.50000500000E+01  0.50000000000E+01 0. -1.
     100001    1    1    2    0    0 -0.65675503079E-03  0.33548714878E-02  0.22097873430E-01  0.50000500000E+01  0.50000000000E+01 0.  0.
</event>
<event>
 4    1  0.4919875E-001  0.5000050E+01  0.7818608E-02  0.2136455E+00
        -11   -1    0    0    0    0  0.00000000000E+00  0.00000000000E+00  0.50000499739E+01  0.50000500000E+01  0.51100000000E-03 0.  1.
         11   -1    0    0    0    0 -0.00000000000E+00 -0.00000000000E+00 -0.50000499739E+01  0.50000500000E+01  0.51100000000E-03 0. -1.
     100001    1    1    2    0    0 -0.21266325302E-02  0.21636003644E-01 -0.52309922963E-02  0.50000500000E+01  0.50000000000E+01 0.  1.
     100001    1    1    2    0    0  0.21266325302E-02 -0.21636003644E-01  0.52309922963E-02  0.50000500000E+01  0.50000000000E+01 0.  0.
</event>
<event>
 4    1  0.4919875E-001  0.5000050E+01  0.7818608E-02  0.2136455E+00
        -11   -1    0    0    0    0  0.00000000000E+00  0.00000000000E+00  0.50000499739E+01  0.50000500000E+01  0.51100000000E-03 0. -1.
         11   -1    0    0    0    0 -0.00000000000E+00 -0.00000000000E+00 -0.50000499739E+01  0.50000500000E+01  0.51100000000E-03 0.  1.
     100001    1    1    2    0    0  0.72438812886E-02  0.20512951171E-01  0.51718002785E-02  0.50000500000E+01  0.50000000000E+01 0.  1.
     100001    1    1    2    0    0 -0.72438812886E-02 -0.20512951171E-01 -0.51718002785E-02  0.50000500000E+01  0.50000000000E+01 0. -1.
</event>
<event>
 4    1  0.4919875E-001  0.5000050E+01  0.7818608E-02  0.2136455E+00
        -11   -1    0    0    0    0  0.00000000000E+00  0.00000000000E+00  0.50000499739E+01  0.50000500000E+01  0.51100000000E-03 0.  1.
         11   -1    0    0    0    0 -0.00000000000E+00 -0.00000000000E+00 -0.50000499739E+01  0.50000500000E+01  0.51100000000E-03 0. -1.
     100001    1    1    2    0    0  0.26504918373E-02 -0.19560026037E-01  0.10506320691E-01  0.50000500000E+01  0.50000000000E+01 0.  1.
     100001    1    1    2    0    0 -0.26504918373E-02  0.19560026037E-01 -0.10506320691E-01  0.50000500000E+01  0.50000000000E+01 0. -1.
</event>
<event>
 4    1  0.4919875E-001  0.5000050E+01  0.7818608E-02  0.2136455E+00
        -11   -1    0    0    0    0  0.00000000000E+00  0.00000000000E+00  0.50000499739E+01  0.50000500000E+01  0.51100000000E-03 0. -1.
         11   -1    0    0    0    0 -0.00000000000E+00 -0.00000000000E+00 -0.50000499739E+01  0.50000500000E+01  0.51100000000E-03 0.  1.
     100001    1    1    2    0    0 -0.74550495577E-02  0.13107916399E-01  0.16510822625E-01  0.50000500000E+01  0.50000000000E+01 0. -1.
     100001    1    1    2    0    0  0.74550495577E-02 -0.13107916399E-01 -0.16510822625E-01  0.50000500000E+01  0.50000000000E+01 0.  1.
</event>
<event>
 4    1  0.4919875E-001  0.5000050E+01  0.7818608E-02  0.2136455E+00
        -11   -1    0    0    0    0  0.00000000000E+00  0.00000000000E+00  0.50000499739E+01  0.50000500000E+01  0.51100000000E-03 0. -1.
         11   -1    0    0    0    0 -0.00000000000E+00 -0.00000000000E+00 -0.50000499739E+01  0.50000500000E+01  0.51100000000E-03 0.  1.
     100001    1    1    2    0    0 -0.17009955710E-01 -0.31319863272E-02 -0.14172316973E-01  0.50000500000E+01  0.50000000000E+01 0.  0.
     100001    1    1    2    0    0  0.17009955710E-01  0.31319863272E-02  0.14172316973E-01  0.50000500000E+01  0.50000000000E+01 0.  1.
</event>
<event>
 4    1  0.4919875E-001  0.5000050E+01  0.7818608E-02  0.2136455E+00
        -11   -1    0    0    0    0  0.00000000000E+00  0.00000000000E+00  0.50000499739E+01  0.50000500000E+01  0.51100000000E-03 0.  1.
         11   -1    0    0    0    0 -0.00000000000E+00 -0.00000000000E+00 -0.50000499739E+01  0.50000500000E+01  0.51100000000E-03 0. -1.
     100001    1    1    2    0    0 -0.13120574883E-01 -0.79671033295E-02 -0.16259713382E-01  0.50000500000E+01  0.50000000000E+01 0. -1.
     100001    1    1    2    0    0  0.13120574883E-01  0.79671033295E-02  0.16259713382E-01  0.50000500000E+01  0.50000000000E+01 0.  0.
</event>
<event>
 4    1  0.4919875E-001  0.5000050E+01  0.7818608E-02  0.2136455E+00
        -11   -1    0    0    0    0  0.00000000000E+00  0.00000000000E+00  0.50000499739E+01  0.50000500000E+01  0.51100000000E-03 0. -1.
         11   -1    0    0    0    0 -0.00000000000E+00 -0.00000000000E+00 -0.50000499739E+01  0.50000500000E+01  0.51100000000E-03 0.  1.
     100001    1    1    2    0    0 -0.14512811050E-01  0.50540200800E-02 -0.16243081495E-01  0.50000500000E+01  0.50000000000E+01 0.  1.
     100001    1    1    2    0    0  0.14512811050E-01 -0.50540200800E-02  0.16243081495E-01  0.50000500000E+01  0.50000000000E+01 0. -1.
</event>
<event>
 4    1  0.4919875E-001  0.5000050E+01  0.7818608E-02  0.2136455E+00
        -11   -1    0    0    0    0  0.00000000000E+00  0.00000000000E+00  0.50000499739E+01  0.50000500000E+01  0.51100000000E-03 0. -1.
         11   -1    0    0    0    0 -0.00000000000E+00 -0.00000000000E+00 -0.50000499739E+01  0.50000500000E+01  0.51100000000E-03 0.  1.
     100001    1    1    2    0    0 -0.12954664319E-01 -0.14968538761E-01  0.10398173867E-01  0.50000500000E+01  0.50000000000E+01 0. -1.
     100001    1    1    2    0    0  0.12954664319E-01  0.14968538761E-01 -0.10398173867E-01  0.50000500000E+01  0.50000000000E+01 0.  1.
</event>
<event>
 4    1  0.4919875E-001  0.5000050E+01  0.7818608E-02  0.2136455E+00
        -11   -1    0    0    0    0  0.00000000000E+00  0.00000000000E+00  0.50000499739E+01  0.50000500000E+01  0.51100000000E-03 0.  1.
         11   -1    0    0    0    0 -0.00000000000E+00 -0.00000000000E+00 -0.50000499739E+01  0.50000500000E+01  0.51100000000E-03 0. -1.
     100001    1    1    2    0    0 -0.10994944941E-01 -0.10115769100E-01  0.16636853707E-01  0.50000500000E+01  0.50000000000E+01 0.  1.
     100001    1    1    2    0    0  0.10994944941E-01  0.10115769100E-01 -0.16636853707E-01  0.50000500000E+01  0.50000000000E+01 0. -1.
</event>
<event>
 4    1  0.4919875E-001  0.5000050E+01  0.7818608E-02  0.2136455E+00
        -11   -1    0    0    0    0  0.00000000000E+00  0.00000000000E+00  0.50000499739E+01  0.50000500000E+01  0.51100000000E-03 0. -1.
         11   -1    0    0    0    0 -0.00000000000E+00 -0.00000000000E+00 -0.50000499739E+01  0.50000500000E+01  0.51100000000E-03 0.  1.
     100001    1    1    2    0    0 -0.11851533411E-01 -0.18875245046E-01  0.18079768409E-02  0.50000500000E+01  0.50000000000E+01 0.  1.
     100001    1    1    2    0    0  0.11851533411E-01  0.18875245046E-01 -0.18079768409E-02  0.50000500000E+01  0.50000000000E+01 0. -1.
</event>
<event>
 4    1  0.4919875E-001  0.5000050E+01  0.7818608E-02  0.2136455E+00
        -11   -1    0    0    0    0  0.00000000000E+00  0.00000000000E+00  0.50000499739E+01  0.50000500000E+01  0.51100000000E-03 0. -1.
         11   -1    0    0    0    0 -0.00000000000E+00 -0.00000000000E+00 -0.50000499739E+01  0.50000500000E+01  0.51100000000E-03 0.  1.
     100001    1    1    2    0    0 -0.11064166333E-01 -0.14187048292E-01 -0.13278342672E-01  0.50000500000E+01  0.50000000000E+01 0.  0.
     100001    1    1    2    0    0  0.11064166333E-01  0.14187048292E-01  0.13278342672E-01  0.50000500000E+01  0.50000000000E+01 0.  0.
</event>
<event>
 4    1  0.4919875E-001  0.5000050E+01  0.7818608E-02  0.2136455E+00
        -11   -1    0    0    0    0  0.00000000000E+00  0.00000000000E+00  0.50000499739E+01  0.50000500000E+01  0.51100000000E-03 0.  1.
         11   -1    0    0    0    0 -0.00000000000E+00 -0.00000000000E+00 -0.50000499739E+01  0.50000500000E+01  0.51100000000E-03 0. -1.
     100001    1    1    2    0    0  0.22310759956E-01  0.14434469189E-02  0.38594194892E-03  0.50000500000E+01  0.50000000000E+01 0.  1.
     100001    1    1    2    0    0 -0.22310759956E-01 -0.14434469189E-02 -0.38594194892E-03  0.50000500000E+01  0.50000000000E+01 0.  0.
</event>
<event>
 4    1  0.4919875E-001  0.5000050E+01  0.7818608E-02  0.2136455E+00
        -11   -1    0    0    0    0  0.00000000000E+00  0.00000000000E+00  0.50000499739E+01  0.50000500000E+01  0.51100000000E-03 0. -1.
         11   -1    0    0    0    0 -0.00000000000E+00 -0.00000000000E+00 -0.50000499739E+01  0.50000500000E+01  0.51100000000E-03 0.  1.
     100001    1    1    2    0    0 -0.64079880447E-02 -0.13625719069E-01 -0.16531181720E-01  0.50000500000E+01  0.50000000000E+01 0.  1.
     100001    1    1    2    0    0  0.64079880447E-02  0.13625719069E-01  0.16531181720E-01  0.50000500000E+01  0.50000000000E+01 0. -1.
</event>
<event>
 4    1  0.4919875E-001  0.5000050E+01  0.7818608E-02  0.2136455E+00
        -11   -1    0    0    0    0  0.00000000000E+00  0.00000000000E+00  0.50000499739E+01  0.50000500000E+01  0.51100000000E-03 0. -1.
         11   -1    0    0    0    0 -0.00000000000E+00 -0.00000000000E+00 -0.50000499739E+01  0.50000500000E+01  0.51100000000E-03 0.  1.
     100001    1    1    2    0    0  0.17152840744E-02  0.15553315955E-01 -0.15973561386E-01  0.50000500000E+01  0.50000000000E+01 0.  1.
     100001    1    1    2    0    0 -0.17152840744E-02 -0.15553315955E-01  0.15973561386E-01  0.50000500000E+01  0.50000000000E+01 0. -1.
</event>
<event>
 4    1  0.4919875E-001  0.5000050E+01  0.7818608E-02  0.2136455E+00
        -11   -1    0    0    0    0  0.00000000000E+00  0.00000000000E+00  0.50000499739E+01  0.50000500000E+01  0.51100000000E-03 0. -1.
         11   -1    0    0    0    0 -0.00000000000E+00 -0.00000000000E+00 -0.50000499739E+01  0.50000500000E+01  0.51100000000E-03 0.  1.
     100001    1    1    2    0    0 -0.35774009540E-02  0.20188708518E-01 -0.89230460495E-02  0.50000500000E+01  0.50000000000E+01 0.  1.
     100001    1    1    2    0    0  0.35774009540E-02 -0.20188708518E-01  0.89230460495E-02  0.50000500000E+01  0.50000000000E+01 0. -1.
</event>
<event>
 4    1  0.4919875E-001  0.5000050E+01  0.7818608E-02  0.2136455E+00
        -11   -1    0    0    0    0  0.00000000000E+00  0.00000000000E+00  0.50000499739E+01  0.50000500000E+01  0.51100000000E-03 0. -1.
         11   -1    0    0    0    0 -0.00000000000E+00 -0.00000000000E+00 -0.50000499739E+01  0.50000500000E+01  0.51100000000E-03 0.  1.
     100001    1    1    2    0    0 -0.34866955142E-02 -0.22052035951E-01  0.12462603208E-02  0.50000500000E+01  0.50000000000E+01 0. -1.
     100001    1    1    2    0    0  0.34866955142E-02  0.22052035951E-01 -0.12462603208E-02  0.50000500000E+01  0.50000000000E+01 0.  0.
</event>
<event>
 4    1  0.4919875E-001  0.5000050E+01  0.7818608E-02  0.2136455E+00
        -11   -1    0    0    0    0  0.00000000000E+00  0.00000000000E+00  0.50000499739E+01  0.50000500000E+01  0.51100000000E-03 0.  1.
         11   -1    0    0    0    0 -0.00000000000E+00 -0.00000000000E+00 -0.50000499739E+01  0.50000500000E+01  0.51100000000E-03 0. -1.
     100001    1    1    2    0    0  0.18035252957E-01  0.98958831103E-02  0.87637690652E-02  0.50000500000E+01  0.50000000000E+01 0.  0.
     100001    1    1    2    0    0 -0.18035252957E-01 -0.98958831103E-02 -0.87637690652E-02  0.50000500000E+01  0.50000000000E+01 0.  0.
</event>
<event>
 4    1  0.4919875E-001  0.5000050E+01  0.7818608E-02  0.2136455E+00
        -11   -1    0    0    0    0  0.00000000000E+00  0.00000000000E+00  0.50000499739E+01  0.50000500000E+01  0.51100000000E-03 0. -1.
         11   -1    0    0    0    0 -0.00000000000E+00 -0.00000000000E+00 -0.50000499739E+01  0.50000500000E+01  0.51100000000E-03 0.  1.
     100001    1    1    2    0    0 -0.90286269980E-02  0.11532082999E-01  0.16896669974E-01  0.50000500000E+01  0.50000000000E+01 0.  0.
     100001    1    1    2    0    0  0.90286269980E-02 -0.11532082999E-01 -0.16896669974E-01  0.50000500000E+01  0.50000000000E+01 0.  1.
</event>
<event>
 4    1  0.4919875E-001  0.5000050E+01  0.7818608E-02  0.2136455E+00
        -11   -1    0    0    0    0  0.00000000000E+00  0.00000000000E+00  0.50000499739E+01  0.50000500000E+01  0.51100000000E-03 0.  1.
         11   -1    0    0    0    0 -0.00000000000E+00 -0.00000000000E+00 -0.50000499739E+01  0.50000500000E+01  0.51100000000E-03 0. -1.
     100001    1    1    2    0    0  0.47205721940E-02 -0.14552329525E-01  0.16307924563E-01  0.50000500000E+01  0.50000000000E+01 0.  1.
     100001    1    1    2    0    0 -0.47205721940E-02  0.14552329525E-01 -0.16307924563E-01  0.50000500000E+01  0.50000000000E+01 0. -1.
</event>
<event>
 4    1  0.4919875E-001  0.5000050E+01  0.7818608E-02  0.2136455E+00
        -11   -1    0    0    0    0  0.00000000000E+00  0.00000000000E+00  0.50000499739E+01  0.50000500000E+01  0.51100000000E-03 0.  1.
         11   -1    0    0    0    0 -0.00000000000E+00 -0.00000000000E+00 -0.50000499739E+01  0.50000500000E+01  0.51100000000E-03 0. -1.
     100001    1    1    2    0    0 -0.18365900844E-01 -0.12673016255E-01  0.14459755176E-02  0.50000500000E+01  0.50000000000E+01 0. -1.
     100001    1    1    2    0    0  0.18365900844E-01  0.12673016255E-01 -0.14459755176E-02  0.50000500000E+01  0.50000000000E+01 0.  1.
</event>
<event>
 4    1  0.4919875E-001  0.5000050E+01  0.7818608E-02  0.2136455E+00
        -11   -1    0    0    0    0  0.00000000000E+00  0.00000000000E+00  0.50000499739E+01  0.50000500000E+01  0.51100000000E-03 0. -1.
         11   -1    0    0    0    0 -0.00000000000E+00 -0.00000000000E+00 -0.50000499739E+01  0.50000500000E+01  0.51100000000E-03 0.  1.
     100001    1    1    2    0    0 -0.18966129045E-01 -0.28468412917E-02  0.11497127628E-01  0.50000500000E+01  0.50000000000E+01 0. -1.
     100001    1    1    2    0    0  0.18966129045E-01  0.28468412917E-02 -0.11497127628E-01  0.50000500000E+01  0.50000000000E+01 0. -1.
</event>
<event>
 4    1  0.4919875E-001  0.5000050E+01  0.7818608E-02  0.2136455E+00
        -11   -1    0    0    0    0  0.00000000000E+00  0.00000000000E+00  0.50000499739E+01  0.50000500000E+01  0.51100000000E-03 0. -1.
         11   -1    0    0    0    0 -0.00000000000E+00 -0.00000000000E+00 -0.50000499739E+01  0.50000500000E+01  0.51100000000E-03 0.  1.
     100001    1    1    2    0    0  0.15221968695E-01 -0.16126661606E-01  0.28679181455E-02  0.50000500000E+01  0.50000000000E+01 0. -1.
     100001    1    1    2    0    0 -0.15221968695E-01  0.16126661606E-01 -0.28679181455E-02  0.50000500000E+01  0.50000000000E+01 0.  1.
</event>
<event>
 4    1  0.4919875E-001  0.5000050E+01  0.7818608E-02  0.2136455E+00
        -11   -1    0    0    0    0  0.00000000000E+00  0.00000000000E+00  0.50000499739E+01  0.50000500000E+01  0.51100000000E-03 0.  1.
         11   -1    0    0    0    0 -0.00000000000E+00 -0.00000000000E+00 -0.50000499739E+01  0.50000500000E+01  0.51100000000E-03 0. -1.
     100001    1    1    2    0    0 -0.10656872873E-02  0.73919184303E-02  0.21076677929E-01  0.50000500000E+01  0.50000000000E+01 0.  0.
     100001    1    1    2    0    0  0.10656872873E-02 -0.73919184303E-02 -0.21076677929E-01  0.50000500000E+01  0.50000000000E+01 0. -1.
</event>
<event>
 4    1  0.4919875E-001  0.5000050E+01  0.7818608E-02  0.2136455E+00
        -11   -1    0    0    0    0  0.00000000000E+00  0.00000000000E+00  0.50000499739E+01  0.50000500000E+01  0.51100000000E-03 0. -1.
         11   -1    0    0    0    0 -0.00000000000E+00 -0.00000000000E+00 -0.50000499739E+01  0.50000500000E+01  0.51100000000E-03 0.  1.
     100001    1    1    2    0    0 -0.12177122795E-01 -0.18553217393E-01 -0.27383032723E-02  0.50000500000E+01  0.50000000000E+01 0.  1.
     100001    1    1    2    0    0  0.12177122795E-01  0.18553217393E-01  0.27383032723E-02  0.50000500000E+01  0.50000000000E+01 0.  0.
</event>
<event>
 4    1  0.4919875E-001  0.5000050E+01  0.7818608E-02  0.2136455E+00
        -11   -1    0    0    0    0  0.00000000000E+00  0.00000000000E+00  0.50000499739E+01  0.50000500000E+01  0.51100000000E-03 0. -1.
         11   -1    0    0    0    0 -0.00000000000E+00 -0.00000000000E+00 -0.50000499739E+01  0.50000500000E+01  0.51100000000E-03 0.  1.
     100001    1    1    2    0    0 -0.15164934022E-01 -0.10597858839E-01 -0.12558370282E-01  0.50000500000E+01  0.50000000000E+01 0.  0.
     100001    1    1    2    0    0  0.15164934022E-01  0.10597858839E-01  0.12558370282E-01  0.50000500000E+01  0.50000000000E+01 0. -1.
</event>
<event>
 4    1  0.4919875E-001  0.5000050E+01  0.7818608E-02  0.2136455E+00
        -11   -1    0    0    0    0  0.00000000000E+00  0.00000000000E+00  0.50000499739E+01  0.50000500000E+01  0.51100000000E-03 0.  1.
         11   -1    0    0    0    0 -0.00000000000E+00 -0.00000000000E+00 -0.50000499739E+01  0.50000500000E+01  0.51100000000E-03 0. -1.
     100001    1    1    2    0    0  0.43711442097E-02  0.11822516805E-01  0.18469534230E-01  0.50000500000E+01  0.50000000000E+01 0.  0.
     100001    1    1    2    0    0 -0.43711442097E-02 -0.11822516805E-01 -0.18469534230E-01  0.50000500000E+01  0.50000000000E+01 0.  0.
</event>
<event>
 4    1  0.4919875E-001  0.5000050E+01  0.7818608E-02  0.2136455E+00
        -11   -1    0    0    0    0  0.00000000000E+00  0.00000000000E+00  0.50000499739E+01  0.50000500000E+01  0.51100000000E-03 0.  1.
         11   -1    0    0    0    0 -0.00000000000E+00 -0.00000000000E+00 -0.50000499739E+01  0.50000500000E+01  0.51100000000E-03 0. -1.
     100001    1    1    2    0    0  0.18792605260E-01  0.99639525722E-02  0.68963857702E-02  0.50000500000E+01  0.50000000000E+01 0.  1.
     100001    1    1    2    0    0 -0.18792605260E-01 -0.99639525722E-02 -0.68963857702E-02  0.50000500000E+01  0.50000000000E+01 0.  0.
</event>
<event>
 4    1  0.4919875E-001  0.5000050E+01  0.7818608E-02  0.2136455E+00
        -11   -1    0    0    0    0  0.00000000000E+00  0.00000000000E+00  0.50000499739E+01  0.50000500000E+01  0.51100000000E-03 0. -1.
         11   -1    0    0    0    0 -0.00000000000E+00 -0.00000000000E+00 -0.50000499739E+01  0.50000500000E+01  0.51100000000E-03 0.  1.
     100001    1    1    2    0    0 -0.19652197146E-01 -0.58993994368E-02 -0.88876731267E-02  0.50000500000E+01  0.50000000000E+01 0.  0.
     100001    1    1    2    0    0  0.19652197146E-01  0.58993994368E-02  0.88876731267E-02  0.50000500000E+01  0.50000000000E+01 0.  0.
</event>
<event>
 4    1  0.4919875E-001  0.5000050E+01  0.7818608E-02  0.2136455E+00
        -11   -1    0    0    0    0  0.00000000000E+00  0.00000000000E+00  0.50000499739E+01  0.50000500000E+01  0.51100000000E-03 0. -1.
         11   -1    0    0    0    0 -0.00000000000E+00 -0.00000000000E+00 -0.50000499739E+01  0.50000500000E+01  0.51100000000E-03 0.  1.
     100001    1    1    2    0    0 -0.33388181842E-02  0.18043948935E-01 -0.12777742365E-01  0.50000500000E+01  0.50000000000E+01 0. -1.
     100001    1    1    2    0    0  0.33388181842E-02 -0.18043948935E-01  0.12777742365E-01  0.50000500000E+01  0.50000000000E+01 0.  0.
</event>
<event>
 4    1  0.4919875E-001  0.5000050E+01  0.7818608E-02  0.2136455E+00
        -11   -1    0    0    0    0  0.00000000000E+00  0.00000000000E+00  0.50000499739E+01  0.50000500000E+01  0.51100000000E-03 0. -1.
         11   -1    0    0    0    0 -0.00000000000E+00 -0.00000000000E+00 -0.50000499739E+01  0.50000500000E+01  0.51100000000E-03 0.  1.
     100001    1    1    2    0    0 -0.19636251195E-01 -0.79016052842E-02  0.72100466660E-02  0.50000500000E+01  0.50000000000E+01 0.  0.
     100001    1    1    2    0    0  0.19636251195E-01  0.79016052842E-02 -0.72100466660E-02  0.50000500000E+01  0.50000000000E+01 0.  0.
</event>
<event>
 4    1  0.4919875E-001  0.5000050E+01  0.7818608E-02  0.2136455E+00
        -11   -1    0    0    0    0  0.00000000000E+00  0.00000000000E+00  0.50000499739E+01  0.50000500000E+01  0.51100000000E-03 0.  1.
         11   -1    0    0    0    0 -0.00000000000E+00 -0.00000000000E+00 -0.50000499739E+01  0.50000500000E+01  0.51100000000E-03 0. -1.
     100001    1    1    2    0    0 -0.33361900498E-02 -0.81397722162E-02 -0.20557637126E-01  0.50000500000E+01  0.50000000000E+01 0.  0.
     100001    1    1    2    0    0  0.33361900498E-02  0.81397722162E-02  0.20557637126E-01  0.50000500000E+01  0.50000000000E+01 0.  1.
</event>
<event>
 4    1  0.4919875E-001  0.5000050E+01  0.7818608E-02  0.2136455E+00
        -11   -1    0    0    0    0  0.00000000000E+00  0.00000000000E+00  0.50000499739E+01  0.50000500000E+01  0.51100000000E-03 0.  1.
         11   -1    0    0    0    0 -0.00000000000E+00 -0.00000000000E+00 -0.50000499739E+01  0.50000500000E+01  0.51100000000E-03 0. -1.
     100001    1    1    2    0    0  0.78683801433E-02 -0.20629903062E-01 -0.35352784279E-02  0.50000500000E+01  0.50000000000E+01 0.  0.
     100001    1    1    2    0    0 -0.78683801433E-02  0.20629903062E-01  0.35352784279E-02  0.50000500000E+01  0.50000000000E+01 0.  1.
</event>
<event>
 4    1  0.4919875E-001  0.5000050E+01  0.7818608E-02  0.2136455E+00
        -11   -1    0    0    0    0  0.00000000000E+00  0.00000000000E+00  0.50000499739E+01  0.50000500000E+01  0.51100000000E-03 0. -1.
         11   -1    0    0    0    0 -0.00000000000E+00 -0.00000000000E+00 -0.50000499739E+01  0.50000500000E+01  0.51100000000E-03 0.  1.
     100001    1    1    2    0    0 -0.17343515001E-01  0.47387120998E-02 -0.13294720570E-01  0.50000500000E+01  0.50000000000E+01 0.  1.
     100001    1    1    2    0    0  0.17343515001E-01 -0.47387120998E-02  0.13294720570E-01  0.50000500000E+01  0.50000000000E+01 0. -1.
</event>
<event>
 4    1  0.4919875E-001  0.5000050E+01  0.7818608E-02  0.2136455E+00
        -11   -1    0    0    0    0  0.00000000000E+00  0.00000000000E+00  0.50000499739E+01  0.50000500000E+01  0.51100000000E-03 0. -1.
         11   -1    0    0    0    0 -0.00000000000E+00 -0.00000000000E+00 -0.50000499739E+01  0.50000500000E+01  0.51100000000E-03 0.  1.
     100001    1    1    2    0    0  0.16191094505E-01  0.92442691153E-02 -0.12344814589E-01  0.50000500000E+01  0.50000000000E+01 0.  1.
     100001    1    1    2    0    0 -0.16191094505E-01 -0.92442691153E-02  0.12344814589E-01  0.50000500000E+01  0.50000000000E+01 0.  1.
</event>
<event>
 4    1  0.4919875E-001  0.5000050E+01  0.7818608E-02  0.2136455E+00
        -11   -1    0    0    0    0  0.00000000000E+00  0.00000000000E+00  0.50000499739E+01  0.50000500000E+01  0.51100000000E-03 0.  1.
         11   -1    0    0    0    0 -0.00000000000E+00 -0.00000000000E+00 -0.50000499739E+01  0.50000500000E+01  0.51100000000E-03 0. -1.
     100001    1    1    2    0    0  0.11064061605E-01 -0.12167770874E-01  0.15150392495E-01  0.50000500000E+01  0.50000000000E+01 0.  0.
     100001    1    1    2    0    0 -0.11064061605E-01  0.12167770874E-01 -0.15150392495E-01  0.50000500000E+01  0.50000000000E+01 0.  0.
</event>
<event>
 4    1  0.4919875E-001  0.5000050E+01  0.7818608E-02  0.2136455E+00
        -11   -1    0    0    0    0  0.00000000000E+00  0.00000000000E+00  0.50000499739E+01  0.50000500000E+01  0.51100000000E-03 0.  1.
         11   -1    0    0    0    0 -0.00000000000E+00 -0.00000000000E+00 -0.50000499739E+01  0.50000500000E+01  0.51100000000E-03 0. -1.
     100001    1    1    2    0    0 -0.22039151201E-01 -0.12841113013E-02  0.35537828436E-02  0.50000500000E+01  0.50000000000E+01 0.  1.
     100001    1    1    2    0    0  0.22039151201E-01  0.12841113013E-02 -0.35537828436E-02  0.50000500000E+01  0.50000000000E+01 0. -1.
</event>
<event>
 4    1  0.4919875E-001  0.5000050E+01  0.7818608E-02  0.2136455E+00
        -11   -1    0    0    0    0  0.00000000000E+00  0.00000000000E+00  0.50000499739E+01  0.50000500000E+01  0.51100000000E-03 0.  1.
         11   -1    0    0    0    0 -0.00000000000E+00 -0.00000000000E+00 -0.50000499739E+01  0.50000500000E+01  0.51100000000E-03 0. -1.
     100001    1    1    2    0    0  0.12714618424E-01  0.63650501385E-02 -0.17257668297E-01  0.50000500000E+01  0.50000000000E+01 0.  0.
     100001    1    1    2    0    0 -0.12714618424E-01 -0.63650501385E-02  0.17257668297E-01  0.50000500000E+01  0.50000000000E+01 0.  0.
</event>
<event>
 4    1  0.4919875E-001  0.5000050E+01  0.7818608E-02  0.2136455E+00
        -11   -1    0    0    0    0  0.00000000000E+00  0.00000000000E+00  0.50000499739E+01  0.50000500000E+01  0.51100000000E-03 0.  1.
         11   -1    0    0    0    0 -0.00000000000E+00 -0.00000000000E+00 -0.50000499739E+01  0.50000500000E+01  0.51100000000E-03 0. -1.
     100001    1    1    2    0    0 -0.13274592518E-02  0.11116829669E-01 -0.19356044277E-01  0.50000500000E+01  0.50000000000E+01 0.  0.
     100001    1    1    2    0    0  0.13274592518E-02 -0.11116829669E-01  0.19356044277E-01  0.50000500000E+01  0.50000000000E+01 0.  0.
</event>
<event>
 4    1  0.4919875E-001  0.5000050E+01  0.7818608E-02  0.2136455E+00
        -11   -1    0    0    0    0  0.00000000000E+00  0.00000000000E+00  0.50000499739E+01  0.50000500000E+01  0.51100000000E-03 0. -1.
         11   -1    0    0    0    0 -0.00000000000E+00 -0.00000000000E+00 -0.50000499739E+01  0.50000500000E+01  0.51100000000E-03 0.  1.
     100001    1    1    2    0    0  0.22050710242E-01 -0.29406607779E-02  0.22630050798E-02  0.50000500000E+01  0.50000000000E+01 0. -1.
     100001    1    1    2    0    0 -0.22050710242E-01  0.29406607779E-02 -0.22630050798E-02  0.50000500000E+01  0.50000000000E+01 0.  1.
</event>
<event>
 4    1  0.4919875E-001  0.5000050E+01  0.7818608E-02  0.2136455E+00
        -11   -1    0    0    0    0  0.00000000000E+00  0.00000000000E+00  0.50000499739E+01  0.50000500000E+01  0.51100000000E-03 0.  1.
         11   -1    0    0    0    0 -0.00000000000E+00 -0.00000000000E+00 -0.50000499739E+01  0.50000500000E+01  0.51100000000E-03 0. -1.
     100001    1    1    2    0    0  0.13111179763E-01  0.73278677964E-02 -0.16565078291E-01  0.50000500000E+01  0.50000000000E+01 0.  0.
     100001    1    1    2    0    0 -0.13111179763E-01 -0.73278677964E-02  0.16565078291E-01  0.50000500000E+01  0.50000000000E+01 0.  0.
</event>
<event>
 4    1  0.4919875E-001  0.5000050E+01  0.7818608E-02  0.2136455E+00
        -11   -1    0    0    0    0  0.00000000000E+00  0.00000000000E+00  0.50000499739E+01  0.50000500000E+01  0.51100000000E-03 0. -1.
         11   -1    0    0    0    0 -0.00000000000E+00 -0.00000000000E+00 -0.50000499739E+01  0.50000500000E+01  0.51100000000E-03 0.  1.
     100001    1    1    2    0    0  0.32880199680E-02 -0.22107064673E-01  0.68492061776E-03  0.50000500000E+01  0.50000000000E+01 0. -1.
     100001    1    1    2    0    0 -0.32880199680E-02  0.22107064673E-01 -0.68492061776E-03  0.50000500000E+01  0.50000000000E+01 0.  0.
</event>
<event>
 4    1  0.4919875E-001  0.5000050E+01  0.7818608E-02  0.2136455E+00
        -11   -1    0    0    0    0  0.00000000000E+00  0.00000000000E+00  0.50000499739E+01  0.50000500000E+01  0.51100000000E-03 0. -1.
         11   -1    0    0    0    0 -0.00000000000E+00 -0.00000000000E+00 -0.50000499739E+01  0.50000500000E+01  0.51100000000E-03 0.  1.
     100001    1    1    2    0    0  0.17997670043E-01 -0.12244514591E-01 -0.51145122405E-02  0.50000500000E+01  0.50000000000E+01 0. -1.
     100001    1    1    2    0    0 -0.17997670043E-01  0.12244514591E-01  0.51145122405E-02  0.50000500000E+01  0.50000000000E+01 0.  1.
</event>
<event>
 4    1  0.4919875E-001  0.5000050E+01  0.7818608E-02  0.2136455E+00
        -11   -1    0    0    0    0  0.00000000000E+00  0.00000000000E+00  0.50000499739E+01  0.50000500000E+01  0.51100000000E-03 0.  1.
         11   -1    0    0    0    0 -0.00000000000E+00 -0.00000000000E+00 -0.50000499739E+01  0.50000500000E+01  0.51100000000E-03 0. -1.
     100001    1    1    2    0    0 -0.12842743499E-01 -0.12586513753E-01  0.13290828077E-01  0.50000500000E+01  0.50000000000E+01 0.  1.
     100001    1    1    2    0    0  0.12842743499E-01  0.12586513753E-01 -0.13290828077E-01  0.50000500000E+01  0.50000000000E+01 0. -1.
</event>
<event>
 4    1  0.4919875E-001  0.5000050E+01  0.7818608E-02  0.2136455E+00
        -11   -1    0    0    0    0  0.00000000000E+00  0.00000000000E+00  0.50000499739E+01  0.50000500000E+01  0.51100000000E-03 0.  1.
         11   -1    0    0    0    0 -0.00000000000E+00 -0.00000000000E+00 -0.50000499739E+01  0.50000500000E+01  0.51100000000E-03 0. -1.
     100001    1    1    2    0    0 -0.16173205553E-01  0.16382593594E-02  0.15354023199E-01  0.50000500000E+01  0.50000000000E+01 0. -1.
     100001    1    1    2    0    0  0.16173205553E-01 -0.16382593594E-02 -0.15354023199E-01  0.50000500000E+01  0.50000000000E+01 0.  0.
</event>
<event>
 4    1  0.4919875E-001  0.5000050E+01  0.7818608E-02  0.2136455E+00
        -11   -1    0    0    0    0  0.00000000000E+00  0.00000000000E+00  0.50000499739E+01  0.50000500000E+01  0.51100000000E-03 0.  1.
         11   -1    0    0    0    0 -0.00000000000E+00 -0.00000000000E+00 -0.50000499739E+01  0.50000500000E+01  0.51100000000E-03 0. -1.
     100001    1    1    2    0    0 -0.22016596602E-01 -0.32842726544E-02  0.21179063230E-02  0.50000500000E+01  0.50000000000E+01 0. -1.
     100001    1    1    2    0    0  0.22016596602E-01  0.32842726544E-02 -0.21179063230E-02  0.50000500000E+01  0.50000000000E+01 0.  0.
</event>
<event>
 4    1  0.4919875E-001  0.5000050E+01  0.7818608E-02  0.2136455E+00
        -11   -1    0    0    0    0  0.00000000000E+00  0.00000000000E+00  0.50000499739E+01  0.50000500000E+01  0.51100000000E-03 0. -1.
         11   -1    0    0    0    0 -0.00000000000E+00 -0.00000000000E+00 -0.50000499739E+01  0.50000500000E+01  0.51100000000E-03 0.  1.
     100001    1    1    2    0    0 -0.56060019746E-02 -0.13284855874E-01 -0.17090577704E-01  0.50000500000E+01  0.50000000000E+01 0.  1.
     100001    1    1    2    0    0  0.56060019746E-02  0.13284855874E-01  0.17090577704E-01  0.50000500000E+01  0.50000000000E+01 0. -1.
</event>
<event>
 4    1  0.4919875E-001  0.5000050E+01  0.7818608E-02  0.2136455E+00
        -11   -1    0    0    0    0  0.00000000000E+00  0.00000000000E+00  0.50000499739E+01  0.50000500000E+01  0.51100000000E-03 0. -1.
         11   -1    0    0    0    0 -0.00000000000E+00 -0.00000000000E+00 -0.50000499739E+01  0.50000500000E+01  0.51100000000E-03 0.  1.
     100001    1    1    2    0    0  0.17047906414E-01 -0.11190887251E-01 -0.91725366955E-02  0.50000500000E+01  0.50000000000E+01 0. -1.
     100001    1    1    2    0    0 -0.17047906414E-01  0.11190887251E-01  0.91725366955E-02  0.50000500000E+01  0.50000000000E+01 0.  0.
</event>
<event>
 4    1  0.4919875E-001  0.5000050E+01  0.7818608E-02  0.2136455E+00
        -11   -1    0    0    0    0  0.00000000000E+00  0.00000000000E+00  0.50000499739E+01  0.50000500000E+01  0.51100000000E-03 0.  1.
         11   -1    0    0    0    0 -0.00000000000E+00 -0.00000000000E+00 -0.50000499739E+01  0.50000500000E+01  0.51100000000E-03 0. -1.
     100001    1    1    2    0    0 -0.57478941567E-02 -0.20515138886E-01  0.67892038753E-02  0.50000500000E+01  0.50000000000E+01 0.  0.
     100001    1    1    2    0    0  0.57478941567E-02  0.20515138886E-01 -0.67892038753E-02  0.50000500000E+01  0.50000000000E+01 0.  1.
</event>
<event>
 4    1  0.4919875E-001  0.5000050E+01  0.7818608E-02  0.2136455E+00
        -11   -1    0    0    0    0  0.00000000000E+00  0.00000000000E+00  0.50000499739E+01  0.50000500000E+01  0.51100000000E-03 0. -1.
         11   -1    0    0    0    0 -0.00000000000E+00 -0.00000000000E+00 -0.50000499739E+01  0.50000500000E+01  0.51100000000E-03 0.  1.
     100001    1    1    2    0    0  0.22331848555E-01  0.10716432726E-02  0.37765173125E-03  0.50000500000E+01  0.50000000000E+01 0.  1.
     100001    1    1    2    0    0 -0.22331848555E-01 -0.10716432726E-02 -0.37765173125E-03  0.50000500000E+01  0.50000000000E+01 0. -1.
</event>
<event>
 4    1  0.4919875E-001  0.5000050E+01  0.7818608E-02  0.2136455E+00
        -11   -1    0    0    0    0  0.00000000000E+00  0.00000000000E+00  0.50000499739E+01  0.50000500000E+01  0.51100000000E-03 0.  1.
         11   -1    0    0    0    0 -0.00000000000E+00 -0.00000000000E+00 -0.50000499739E+01  0.50000500000E+01  0.51100000000E-03 0. -1.
     100001    1    1    2    0    0 -0.15656483387E-01 -0.15629178019E-01  0.32566581604E-02  0.50000500000E+01  0.50000000000E+01 0. -1.
     100001    1    1    2    0    0  0.15656483387E-01  0.15629178019E-01 -0.32566581604E-02  0.50000500000E+01  0.50000000000E+01 0.  1.
</event>
<event>
 4    1  0.4919875E-001  0.5000050E+01  0.7818608E-02  0.2136455E+00
        -11   -1    0    0    0    0  0.00000000000E+00  0.00000000000E+00  0.50000499739E+01  0.50000500000E+01  0.51100000000E-03 0. -1.
         11   -1    0    0    0    0 -0.00000000000E+00 -0.00000000000E+00 -0.50000499739E+01  0.50000500000E+01  0.51100000000E-03 0.  1.
     100001    1    1    2    0    0 -0.12933361034E-01 -0.78353351684E-02  0.16472346377E-01  0.50000500000E+01  0.50000000000E+01 0. -1.
     100001    1    1    2    0    0  0.12933361034E-01  0.78353351684E-02 -0.16472346377E-01  0.50000500000E+01  0.50000000000E+01 0.  1.
</event>
<event>
 4    1  0.4919875E-001  0.5000050E+01  0.7818608E-02  0.2136455E+00
        -11   -1    0    0    0    0  0.00000000000E+00  0.00000000000E+00  0.50000499739E+01  0.50000500000E+01  0.51100000000E-03 0. -1.
         11   -1    0    0    0    0 -0.00000000000E+00 -0.00000000000E+00 -0.50000499739E+01  0.50000500000E+01  0.51100000000E-03 0.  1.
     100001    1    1    2    0    0 -0.20766254841E-01  0.53964658893E-02  0.62962938115E-02  0.50000500000E+01  0.50000000000E+01 0.  1.
     100001    1    1    2    0    0  0.20766254841E-01 -0.53964658893E-02 -0.62962938115E-02  0.50000500000E+01  0.50000000000E+01 0. -1.
</event>
<event>
 4    1  0.4919875E-001  0.5000050E+01  0.7818608E-02  0.2136455E+00
        -11   -1    0    0    0    0  0.00000000000E+00  0.00000000000E+00  0.50000499739E+01  0.50000500000E+01  0.51100000000E-03 0. -1.
         11   -1    0    0    0    0 -0.00000000000E+00 -0.00000000000E+00 -0.50000499739E+01  0.50000500000E+01  0.51100000000E-03 0.  1.
     100001    1    1    2    0    0  0.36791405686E-02  0.22029950605E-01  0.10713080783E-02  0.50000500000E+01  0.50000000000E+01 0.  1.
     100001    1    1    2    0    0 -0.36791405686E-02 -0.22029950605E-01 -0.10713080783E-02  0.50000500000E+01  0.50000000000E+01 0. -1.
</event>
<event>
 4    1  0.4919875E-001  0.5000050E+01  0.7818608E-02  0.2136455E+00
        -11   -1    0    0    0    0  0.00000000000E+00  0.00000000000E+00  0.50000499739E+01  0.50000500000E+01  0.51100000000E-03 0. -1.
         11   -1    0    0    0    0 -0.00000000000E+00 -0.00000000000E+00 -0.50000499739E+01  0.50000500000E+01  0.51100000000E-03 0.  1.
     100001    1    1    2    0    0 -0.85213154514E-02  0.17780871477E-01  0.10546577288E-01  0.50000500000E+01  0.50000000000E+01 0. -1.
     100001    1    1    2    0    0  0.85213154514E-02 -0.17780871477E-01 -0.10546577288E-01  0.50000500000E+01  0.50000000000E+01 0.  1.
</event>
<event>
 4    1  0.4919875E-001  0.5000050E+01  0.7818608E-02  0.2136455E+00
        -11   -1    0    0    0    0  0.00000000000E+00  0.00000000000E+00  0.50000499739E+01  0.50000500000E+01  0.51100000000E-03 0. -1.
         11   -1    0    0    0    0 -0.00000000000E+00 -0.00000000000E+00 -0.50000499739E+01  0.50000500000E+01  0.51100000000E-03 0.  1.
     100001    1    1    2    0    0  0.11216420187E-01  0.12119380990E-01 -0.15076969941E-01  0.50000500000E+01  0.50000000000E+01 0.  1.
     100001    1    1    2    0    0 -0.11216420187E-01 -0.12119380990E-01  0.15076969941E-01  0.50000500000E+01  0.50000000000E+01 0. -1.
</event>
<event>
 4    1  0.4919875E-001  0.5000050E+01  0.7818608E-02  0.2136455E+00
        -11   -1    0    0    0    0  0.00000000000E+00  0.00000000000E+00  0.50000499739E+01  0.50000500000E+01  0.51100000000E-03 0. -1.
         11   -1    0    0    0    0 -0.00000000000E+00 -0.00000000000E+00 -0.50000499739E+01  0.50000500000E+01  0.51100000000E-03 0.  1.
     100001    1    1    2    0    0  0.19525332993E-01  0.22645207176E-02 -0.10660010198E-01  0.50000500000E+01  0.50000000000E+01 0.  1.
     100001    1    1    2    0    0 -0.19525332993E-01 -0.22645207176E-02  0.10660010198E-01  0.50000500000E+01  0.50000000000E+01 0. -1.
</event>
<event>
 4    1  0.4919875E-001  0.5000050E+01  0.7818608E-02  0.2136455E+00
        -11   -1    0    0    0    0  0.00000000000E+00  0.00000000000E+00  0.50000499739E+01  0.50000500000E+01  0.51100000000E-03 0.  1.
         11   -1    0    0    0    0 -0.00000000000E+00 -0.00000000000E+00 -0.50000499739E+01  0.50000500000E+01  0.51100000000E-03 0. -1.
     100001    1    1    2    0    0 -0.21092388051E-01  0.56871614954E-02  0.47717774929E-02  0.50000500000E+01  0.50000000000E+01 0. -1.
     100001    1    1    2    0    0  0.21092388051E-01 -0.56871614954E-02 -0.47717774929E-02  0.50000500000E+01  0.50000000000E+01 0.  0.
</event>
<event>
 4    1  0.4919875E-001  0.5000050E+01  0.7818608E-02  0.2136455E+00
        -11   -1    0    0    0    0  0.00000000000E+00  0.00000000000E+00  0.50000499739E+01  0.50000500000E+01  0.51100000000E-03 0. -1.
         11   -1    0    0    0    0 -0.00000000000E+00 -0.00000000000E+00 -0.50000499739E+01  0.50000500000E+01  0.51100000000E-03 0.  1.
     100001    1    1    2    0    0 -0.20384258039E-01  0.71106890896E-03 -0.91640005017E-02  0.50000500000E+01  0.50000000000E+01 0.  1.
     100001    1    1    2    0    0  0.20384258039E-01 -0.71106890896E-03  0.91640005017E-02  0.50000500000E+01  0.50000000000E+01 0. -1.
</event>
<event>
 4    1  0.4919875E-001  0.5000050E+01  0.7818608E-02  0.2136455E+00
        -11   -1    0    0    0    0  0.00000000000E+00  0.00000000000E+00  0.50000499739E+01  0.50000500000E+01  0.51100000000E-03 0.  1.
         11   -1    0    0    0    0 -0.00000000000E+00 -0.00000000000E+00 -0.50000499739E+01  0.50000500000E+01  0.51100000000E-03 0. -1.
     100001    1    1    2    0    0 -0.17810377183E-01  0.79946736418E-03  0.13496437179E-01  0.50000500000E+01  0.50000000000E+01 0.  1.
     100001    1    1    2    0    0  0.17810377183E-01 -0.79946736418E-03 -0.13496437179E-01  0.50000500000E+01  0.50000000000E+01 0. -1.
</event>
<event>
 4    1  0.4919875E-001  0.5000050E+01  0.7818608E-02  0.2136455E+00
        -11   -1    0    0    0    0  0.00000000000E+00  0.00000000000E+00  0.50000499739E+01  0.50000500000E+01  0.51100000000E-03 0. -1.
         11   -1    0    0    0    0 -0.00000000000E+00 -0.00000000000E+00 -0.50000499739E+01  0.50000500000E+01  0.51100000000E-03 0.  1.
     100001    1    1    2    0    0 -0.20058090832E-01  0.49906187712E-02  0.85304874681E-02  0.50000500000E+01  0.50000000000E+01 0. -1.
     100001    1    1    2    0    0  0.20058090832E-01 -0.49906187712E-02 -0.85304874681E-02  0.50000500000E+01  0.50000000000E+01 0.  1.
</event>
<event>
 4    1  0.4919875E-001  0.5000050E+01  0.7818608E-02  0.2136455E+00
        -11   -1    0    0    0    0  0.00000000000E+00  0.00000000000E+00  0.50000499739E+01  0.50000500000E+01  0.51100000000E-03 0.  1.
         11   -1    0    0    0    0 -0.00000000000E+00 -0.00000000000E+00 -0.50000499739E+01  0.50000500000E+01  0.51100000000E-03 0. -1.
     100001    1    1    2    0    0  0.15395266984E-01  0.14906078307E-01 -0.63872595077E-02  0.50000500000E+01  0.50000000000E+01 0. -1.
     100001    1    1    2    0    0 -0.15395266984E-01 -0.14906078307E-01  0.63872595077E-02  0.50000500000E+01  0.50000000000E+01 0.  0.
</event>
<event>
 4    1  0.4919875E-001  0.5000050E+01  0.7818608E-02  0.2136455E+00
        -11   -1    0    0    0    0  0.00000000000E+00  0.00000000000E+00  0.50000499739E+01  0.50000500000E+01  0.51100000000E-03 0. -1.
         11   -1    0    0    0    0 -0.00000000000E+00 -0.00000000000E+00 -0.50000499739E+01  0.50000500000E+01  0.51100000000E-03 0.  1.
     100001    1    1    2    0    0  0.17313185791E-01  0.11025592153E-01  0.88708745594E-02  0.50000500000E+01  0.50000000000E+01 0. -1.
     100001    1    1    2    0    0 -0.17313185791E-01 -0.11025592153E-01 -0.88708745594E-02  0.50000500000E+01  0.50000000000E+01 0.  1.
</event>
<event>
 4    1  0.4919875E-001  0.5000050E+01  0.7818608E-02  0.2136455E+00
        -11   -1    0    0    0    0  0.00000000000E+00  0.00000000000E+00  0.50000499739E+01  0.50000500000E+01  0.51100000000E-03 0. -1.
         11   -1    0    0    0    0 -0.00000000000E+00 -0.00000000000E+00 -0.50000499739E+01  0.50000500000E+01  0.51100000000E-03 0.  1.
     100001    1    1    2    0    0  0.83687298889E-03 -0.18519126451E-01 -0.12503763397E-01  0.50000500000E+01  0.50000000000E+01 0.  0.
     100001    1    1    2    0    0 -0.83687298889E-03  0.18519126451E-01  0.12503763397E-01  0.50000500000E+01  0.50000000000E+01 0.  1.
</event>
<event>
 4    1  0.4919875E-001  0.5000050E+01  0.7818608E-02  0.2136455E+00
        -11   -1    0    0    0    0  0.00000000000E+00  0.00000000000E+00  0.50000499739E+01  0.50000500000E+01  0.51100000000E-03 0.  1.
         11   -1    0    0    0    0 -0.00000000000E+00 -0.00000000000E+00 -0.50000499739E+01  0.50000500000E+01  0.51100000000E-03 0. -1.
     100001    1    1    2    0    0 -0.19739339126E-01 -0.54870272342E-02 -0.89584330651E-02  0.50000500000E+01  0.50000000000E+01 0. -1.
     100001    1    1    2    0    0  0.19739339126E-01  0.54870272342E-02  0.89584330651E-02  0.50000500000E+01  0.50000000000E+01 0.  1.
</event>
<event>
 4    1  0.4919875E-001  0.5000050E+01  0.7818608E-02  0.2136455E+00
        -11   -1    0    0    0    0  0.00000000000E+00  0.00000000000E+00  0.50000499739E+01  0.50000500000E+01  0.51100000000E-03 0. -1.
         11   -1    0    0    0    0 -0.00000000000E+00 -0.00000000000E+00 -0.50000499739E+01  0.50000500000E+01  0.51100000000E-03 0.  1.
     100001    1    1    2    0    0  0.86731796271E-02  0.18224587232E-01 -0.96251169028E-02  0.50000500000E+01  0.50000000000E+01 0.  1.
     100001    1    1    2    0    0 -0.86731796271E-02 -0.18224587232E-01  0.96251169028E-02  0.50000500000E+01  0.50000000000E+01 0.  1.
</event>
<event>
 4    1  0.4919875E-001  0.5000050E+01  0.7818608E-02  0.2136455E+00
        -11   -1    0    0    0    0  0.00000000000E+00  0.00000000000E+00  0.50000499739E+01  0.50000500000E+01  0.51100000000E-03 0. -1.
         11   -1    0    0    0    0 -0.00000000000E+00 -0.00000000000E+00 -0.50000499739E+01  0.50000500000E+01  0.51100000000E-03 0.  1.
     100001    1    1    2    0    0  0.13118215610E-02  0.16530414459E-01 -0.15000900706E-01  0.50000500000E+01  0.50000000000E+01 0.  0.
     100001    1    1    2    0    0 -0.13118215610E-02 -0.16530414459E-01  0.15000900706E-01  0.50000500000E+01  0.50000000000E+01 0.  1.
</event>
<event>
 4    1  0.4919875E-001  0.5000050E+01  0.7818608E-02  0.2136455E+00
        -11   -1    0    0    0    0  0.00000000000E+00  0.00000000000E+00  0.50000499739E+01  0.50000500000E+01  0.51100000000E-03 0.  1.
         11   -1    0    0    0    0 -0.00000000000E+00 -0.00000000000E+00 -0.50000499739E+01  0.50000500000E+01  0.51100000000E-03 0. -1.
     100001    1    1    2    0    0  0.21084991597E-01 -0.34271659330E-02  0.66090969889E-02  0.50000500000E+01  0.50000000000E+01 0.  0.
     100001    1    1    2    0    0 -0.21084991597E-01  0.34271659330E-02 -0.66090969889E-02  0.50000500000E+01  0.50000000000E+01 0.  1.
</event>
<event>
 4    1  0.4919875E-001  0.5000050E+01  0.7818608E-02  0.2136455E+00
        -11   -1    0    0    0    0  0.00000000000E+00  0.00000000000E+00  0.50000499739E+01  0.50000500000E+01  0.51100000000E-03 0. -1.
         11   -1    0    0    0    0 -0.00000000000E+00 -0.00000000000E+00 -0.50000499739E+01  0.50000500000E+01  0.51100000000E-03 0.  1.
     100001    1    1    2    0    0 -0.11392856470E-01  0.78033290480E-02  0.17587307276E-01  0.50000500000E+01  0.50000000000E+01 0.  0.
     100001    1    1    2    0    0  0.11392856470E-01 -0.78033290480E-02 -0.17587307276E-01  0.50000500000E+01  0.50000000000E+01 0.  0.
</event>
<event>
 4    1  0.4919875E-001  0.5000050E+01  0.7818608E-02  0.2136455E+00
        -11   -1    0    0    0    0  0.00000000000E+00  0.00000000000E+00  0.50000499739E+01  0.50000500000E+01  0.51100000000E-03 0. -1.
         11   -1    0    0    0    0 -0.00000000000E+00 -0.00000000000E+00 -0.50000499739E+01  0.50000500000E+01  0.51100000000E-03 0.  1.
     100001    1    1    2    0    0  0.17589175834E-01 -0.79265031953E-02 -0.11304598206E-01  0.50000500000E+01  0.50000000000E+01 0.  1.
     100001    1    1    2    0    0 -0.17589175834E-01  0.79265031953E-02  0.11304598206E-01  0.50000500000E+01  0.50000000000E+01 0.  1.
</event>
<event>
 4    1  0.4919875E-001  0.5000050E+01  0.7818608E-02  0.2136455E+00
        -11   -1    0    0    0    0  0.00000000000E+00  0.00000000000E+00  0.50000499739E+01  0.50000500000E+01  0.51100000000E-03 0.  1.
         11   -1    0    0    0    0 -0.00000000000E+00 -0.00000000000E+00 -0.50000499739E+01  0.50000500000E+01  0.51100000000E-03 0. -1.
     100001    1    1    2    0    0 -0.27197807127E-02 -0.95079756251E-02  0.20055016639E-01  0.50000500000E+01  0.50000000000E+01 0.  0.
     100001    1    1    2    0    0  0.27197807127E-02  0.95079756251E-02 -0.20055016639E-01  0.50000500000E+01  0.50000000000E+01 0. -1.
</event>
<event>
 4    1  0.4919875E-001  0.5000050E+01  0.7818608E-02  0.2136455E+00
        -11   -1    0    0    0    0  0.00000000000E+00  0.00000000000E+00  0.50000499739E+01  0.50000500000E+01  0.51100000000E-03 0.  1.
         11   -1    0    0    0    0 -0.00000000000E+00 -0.00000000000E+00 -0.50000499739E+01  0.50000500000E+01  0.51100000000E-03 0. -1.
     100001    1    1    2    0    0 -0.17733901334E-01 -0.13620235856E-01  0.20462436839E-04  0.50000500000E+01  0.50000000000E+01 0. -1.
     100001    1    1    2    0    0  0.17733901334E-01  0.13620235856E-01 -0.20462436839E-04  0.50000500000E+01  0.50000000000E+01 0.  0.
</event>
<event>
 4    1  0.4919875E-001  0.5000050E+01  0.7818608E-02  0.2136455E+00
        -11   -1    0    0    0    0  0.00000000000E+00  0.00000000000E+00  0.50000499739E+01  0.50000500000E+01  0.51100000000E-03 0.  1.
         11   -1    0    0    0    0 -0.00000000000E+00 -0.00000000000E+00 -0.50000499739E+01  0.50000500000E+01  0.51100000000E-03 0. -1.
     100001    1    1    2    0    0  0.68612788542E-02  0.97442114697E-02 -0.18920245646E-01  0.50000500000E+01  0.50000000000E+01 0. -1.
     100001    1    1    2    0    0 -0.68612788542E-02 -0.97442114697E-02  0.18920245646E-01  0.50000500000E+01  0.50000000000E+01 0.  1.
</event>
<event>
 4    1  0.4919875E-001  0.5000050E+01  0.7818608E-02  0.2136455E+00
        -11   -1    0    0    0    0  0.00000000000E+00  0.00000000000E+00  0.50000499739E+01  0.50000500000E+01  0.51100000000E-03 0. -1.
         11   -1    0    0    0    0 -0.00000000000E+00 -0.00000000000E+00 -0.50000499739E+01  0.50000500000E+01  0.51100000000E-03 0.  1.
     100001    1    1    2    0    0  0.17594816803E-01 -0.13190005331E-01  0.40556973531E-02  0.50000500000E+01  0.50000000000E+01 0.  1.
     100001    1    1    2    0    0 -0.17594816803E-01  0.13190005331E-01 -0.40556973531E-02  0.50000500000E+01  0.50000000000E+01 0. -1.
</event>
<event>
 4    1  0.4919875E-001  0.5000050E+01  0.7818608E-02  0.2136455E+00
        -11   -1    0    0    0    0  0.00000000000E+00  0.00000000000E+00  0.50000499739E+01  0.50000500000E+01  0.51100000000E-03 0. -1.
         11   -1    0    0    0    0 -0.00000000000E+00 -0.00000000000E+00 -0.50000499739E+01  0.50000500000E+01  0.51100000000E-03 0.  1.
     100001    1    1    2    0    0  0.90514922299E-02 -0.80471785929E-02 -0.18796699314E-01  0.50000500000E+01  0.50000000000E+01 0.  1.
     100001    1    1    2    0    0 -0.90514922299E-02  0.80471785929E-02  0.18796699314E-01  0.50000500000E+01  0.50000000000E+01 0. -1.
</event>
<event>
 4    1  0.4919875E-001  0.5000050E+01  0.7818608E-02  0.2136455E+00
        -11   -1    0    0    0    0  0.00000000000E+00  0.00000000000E+00  0.50000499739E+01  0.50000500000E+01  0.51100000000E-03 0.  1.
         11   -1    0    0    0    0 -0.00000000000E+00 -0.00000000000E+00 -0.50000499739E+01  0.50000500000E+01  0.51100000000E-03 0. -1.
     100001    1    1    2    0    0  0.20543905016E-01 -0.88287534138E-02 -0.59831681247E-04  0.50000500000E+01  0.50000000000E+01 0. -1.
     100001    1    1    2    0    0 -0.20543905016E-01  0.88287534138E-02  0.59831681247E-04  0.50000500000E+01  0.50000000000E+01 0.  1.
</event>
<event>
 4    1  0.4919875E-001  0.5000050E+01  0.7818608E-02  0.2136455E+00
        -11   -1    0    0    0    0  0.00000000000E+00  0.00000000000E+00  0.50000499739E+01  0.50000500000E+01  0.51100000000E-03 0. -1.
         11   -1    0    0    0    0 -0.00000000000E+00 -0.00000000000E+00 -0.50000499739E+01  0.50000500000E+01  0.51100000000E-03 0.  1.
     100001    1    1    2    0    0  0.20276436887E-01 -0.54504223221E-02 -0.76916515559E-02  0.50000500000E+01  0.50000000000E+01 0.  0.
     100001    1    1    2    0    0 -0.20276436887E-01  0.54504223221E-02  0.76916515559E-02  0.50000500000E+01  0.50000000000E+01 0.  1.
</event>
<event>
 4    1  0.4919875E-001  0.5000050E+01  0.7818608E-02  0.2136455E+00
        -11   -1    0    0    0    0  0.00000000000E+00  0.00000000000E+00  0.50000499739E+01  0.50000500000E+01  0.51100000000E-03 0. -1.
         11   -1    0    0    0    0 -0.00000000000E+00 -0.00000000000E+00 -0.50000499739E+01  0.50000500000E+01  0.51100000000E-03 0.  1.
     100001    1    1    2    0    0  0.46396510052E-02 -0.54967768954E-02 -0.21172188888E-01  0.50000500000E+01  0.50000000000E+01 0.  1.
     100001    1    1    2    0    0 -0.46396510052E-02  0.54967768954E-02  0.21172188888E-01  0.50000500000E+01  0.50000000000E+01 0.  0.
</event>
<event>
 4    1  0.4919875E-001  0.5000050E+01  0.7818608E-02  0.2136455E+00
        -11   -1    0    0    0    0  0.00000000000E+00  0.00000000000E+00  0.50000499739E+01  0.50000500000E+01  0.51100000000E-03 0.  1.
         11   -1    0    0    0    0 -0.00000000000E+00 -0.00000000000E+00 -0.50000499739E+01  0.50000500000E+01  0.51100000000E-03 0. -1.
     100001    1    1    2    0    0  0.45479437668E-02 -0.35791848271E-02  0.21598799584E-01  0.50000500000E+01  0.50000000000E+01 0.  1.
     100001    1    1    2    0    0 -0.45479437668E-02  0.35791848271E-02 -0.21598799584E-01  0.50000500000E+01  0.50000000000E+01 0.  0.
</event>
<event>
 4    1  0.4919875E-001  0.5000050E+01  0.7818608E-02  0.2136455E+00
        -11   -1    0    0    0    0  0.00000000000E+00  0.00000000000E+00  0.50000499739E+01  0.50000500000E+01  0.51100000000E-03 0.  1.
         11   -1    0    0    0    0 -0.00000000000E+00 -0.00000000000E+00 -0.50000499739E+01  0.50000500000E+01  0.51100000000E-03 0. -1.
     100001    1    1    2    0    0 -0.80132926109E-02 -0.44167991397E-02  0.20402978383E-01  0.50000500000E+01  0.50000000000E+01 0.  0.
     100001    1    1    2    0    0  0.80132926109E-02  0.44167991397E-02 -0.20402978383E-01  0.50000500000E+01  0.50000000000E+01 0. -1.
</event>
<event>
 4    1  0.4919875E-001  0.5000050E+01  0.7818608E-02  0.2136455E+00
        -11   -1    0    0    0    0  0.00000000000E+00  0.00000000000E+00  0.50000499739E+01  0.50000500000E+01  0.51100000000E-03 0.  1.
         11   -1    0    0    0    0 -0.00000000000E+00 -0.00000000000E+00 -0.50000499739E+01  0.50000500000E+01  0.51100000000E-03 0. -1.
     100001    1    1    2    0    0  0.14167695938E-01 -0.85891803700E-02 -0.15016819649E-01  0.50000500000E+01  0.50000000000E+01 0.  0.
     100001    1    1    2    0    0 -0.14167695938E-01  0.85891803700E-02  0.15016819649E-01  0.50000500000E+01  0.50000000000E+01 0.  0.
</event>
<event>
 4    1  0.4919875E-001  0.5000050E+01  0.7818608E-02  0.2136455E+00
        -11   -1    0    0    0    0  0.00000000000E+00  0.00000000000E+00  0.50000499739E+01  0.50000500000E+01  0.51100000000E-03 0. -1.
         11   -1    0    0    0    0 -0.00000000000E+00 -0.00000000000E+00 -0.50000499739E+01  0.50000500000E+01  0.51100000000E-03 0.  1.
     100001    1    1    2    0    0  0.12096223167E-01  0.75974136135E-02  0.17203580775E-01  0.50000500000E+01  0.50000000000E+01 0.  0.
     100001    1    1    2    0    0 -0.12096223167E-01 -0.75974136135E-02 -0.17203580775E-01  0.50000500000E+01  0.50000000000E+01 0.  1.
</event>
<event>
 4    1  0.4919875E-001  0.5000050E+01  0.7818608E-02  0.2136455E+00
        -11   -1    0    0    0    0  0.00000000000E+00  0.00000000000E+00  0.50000499739E+01  0.50000500000E+01  0.51100000000E-03 0.  1.
         11   -1    0    0    0    0 -0.00000000000E+00 -0.00000000000E+00 -0.50000499739E+01  0.50000500000E+01  0.51100000000E-03 0. -1.
     100001    1    1    2    0    0  0.15030364850E-01 -0.14917880585E-01 -0.71796567678E-02  0.50000500000E+01  0.50000000000E+01 0.  1.
     100001    1    1    2    0    0 -0.15030364850E-01  0.14917880585E-01  0.71796567678E-02  0.50000500000E+01  0.50000000000E+01 0.  0.
</event>
<event>
 4    1  0.4919875E-001  0.5000050E+01  0.7818608E-02  0.2136455E+00
        -11   -1    0    0    0    0  0.00000000000E+00  0.00000000000E+00  0.50000499739E+01  0.50000500000E+01  0.51100000000E-03 0.  1.
         11   -1    0    0    0    0 -0.00000000000E+00 -0.00000000000E+00 -0.50000499739E+01  0.50000500000E+01  0.51100000000E-03 0. -1.
     100001    1    1    2    0    0 -0.51730818677E-02 -0.20488787543E-01 -0.73110402126E-02  0.50000500000E+01  0.50000000000E+01 0.  0.
     100001    1    1    2    0    0  0.51730818677E-02  0.20488787543E-01  0.73110402126E-02  0.50000500000E+01  0.50000000000E+01 0. -1.
</event>
<event>
 4    1  0.4919875E-001  0.5000050E+01  0.7818608E-02  0.2136455E+00
        -11   -1    0    0    0    0  0.00000000000E+00  0.00000000000E+00  0.50000499739E+01  0.50000500000E+01  0.51100000000E-03 0.  1.
         11   -1    0    0    0    0 -0.00000000000E+00 -0.00000000000E+00 -0.50000499739E+01  0.50000500000E+01  0.51100000000E-03 0. -1.
     100001    1    1    2    0    0 -0.17070900418E-01 -0.88197936018E-02 -0.11436699687E-01  0.50000500000E+01  0.50000000000E+01 0.  0.
     100001    1    1    2    0    0  0.17070900418E-01  0.88197936018E-02  0.11436699687E-01  0.50000500000E+01  0.50000000000E+01 0.  0.
</event>
<event>
 4    1  0.4919875E-001  0.5000050E+01  0.7818608E-02  0.2136455E+00
        -11   -1    0    0    0    0  0.00000000000E+00  0.00000000000E+00  0.50000499739E+01  0.50000500000E+01  0.51100000000E-03 0. -1.
         11   -1    0    0    0    0 -0.00000000000E+00 -0.00000000000E+00 -0.50000499739E+01  0.50000500000E+01  0.51100000000E-03 0.  1.
     100001    1    1    2    0    0  0.18789076667E-01 -0.12351040182E-02 -0.12060166502E-01  0.50000500000E+01  0.50000000000E+01 0. -1.
     100001    1    1    2    0    0 -0.18789076667E-01  0.12351040182E-02  0.12060166502E-01  0.50000500000E+01  0.50000000000E+01 0.  0.
</event>
<event>
 4    1  0.4919875E-001  0.5000050E+01  0.7818608E-02  0.2136455E+00
        -11   -1    0    0    0    0  0.00000000000E+00  0.00000000000E+00  0.50000499739E+01  0.50000500000E+01  0.51100000000E-03 0.  1.
         11   -1    0    0    0    0 -0.00000000000E+00 -0.00000000000E+00 -0.50000499739E+01  0.50000500000E+01  0.51100000000E-03 0. -1.
     100001    1    1    2    0    0  0.77835603525E-02  0.50000100375E-02  0.20357273586E-01  0.50000500000E+01  0.50000000000E+01 0.  0.
     100001    1    1    2    0    0 -0.77835603525E-02 -0.50000100375E-02 -0.20357273586E-01  0.50000500000E+01  0.50000000000E+01 0. -1.
</event>
<event>
 4    1  0.4919875E-001  0.5000050E+01  0.7818608E-02  0.2136455E+00
        -11   -1    0    0    0    0  0.00000000000E+00  0.00000000000E+00  0.50000499739E+01  0.50000500000E+01  0.51100000000E-03 0.  1.
         11   -1    0    0    0    0 -0.00000000000E+00 -0.00000000000E+00 -0.50000499739E+01  0.50000500000E+01  0.51100000000E-03 0. -1.
     100001    1    1    2    0    0 -0.12633585705E-01  0.16213419060E-01  0.88045473822E-02  0.50000500000E+01  0.50000000000E+01 0.  0.
     100001    1    1    2    0    0  0.12633585705E-01 -0.16213419060E-01 -0.88045473822E-02  0.50000500000E+01  0.50000000000E+01 0.  1.
</event>
<event>
 4    1  0.4919875E-001  0.5000050E+01  0.7818608E-02  0.2136455E+00
        -11   -1    0    0    0    0  0.00000000000E+00  0.00000000000E+00  0.50000499739E+01  0.50000500000E+01  0.51100000000E-03 0. -1.
         11   -1    0    0    0    0 -0.00000000000E+00 -0.00000000000E+00 -0.50000499739E+01  0.50000500000E+01  0.51100000000E-03 0.  1.
     100001    1    1    2    0    0  0.12381899439E-01 -0.10111802598E-01 -0.15634657480E-01  0.50000500000E+01  0.50000000000E+01 0.  1.
     100001    1    1    2    0    0 -0.12381899439E-01  0.10111802598E-01  0.15634657480E-01  0.50000500000E+01  0.50000000000E+01 0. -1.
</event>
<event>
 4    1  0.4919875E-001  0.5000050E+01  0.7818608E-02  0.2136455E+00
        -11   -1    0    0    0    0  0.00000000000E+00  0.00000000000E+00  0.50000499739E+01  0.50000500000E+01  0.51100000000E-03 0.  1.
         11   -1    0    0    0    0 -0.00000000000E+00 -0.00000000000E+00 -0.50000499739E+01  0.50000500000E+01  0.51100000000E-03 0. -1.
     100001    1    1    2    0    0  0.19527568038E-01 -0.10879237285E-01  0.56460837678E-03  0.50000500000E+01  0.50000000000E+01 0.  1.
     100001    1    1    2    0    0 -0.19527568038E-01  0.10879237285E-01 -0.56460837678E-03  0.50000500000E+01  0.50000000000E+01 0. -1.
</event>
<event>
 4    1  0.4919875E-001  0.5000050E+01  0.7818608E-02  0.2136455E+00
        -11   -1    0    0    0    0  0.00000000000E+00  0.00000000000E+00  0.50000499739E+01  0.50000500000E+01  0.51100000000E-03 0.  1.
         11   -1    0    0    0    0 -0.00000000000E+00 -0.00000000000E+00 -0.50000499739E+01  0.50000500000E+01  0.51100000000E-03 0. -1.
     100001    1    1    2    0    0  0.10735477668E-01  0.16966473174E-01 -0.98433128201E-02  0.50000500000E+01  0.50000000000E+01 0.  1.
     100001    1    1    2    0    0 -0.10735477668E-01 -0.16966473174E-01  0.98433128201E-02  0.50000500000E+01  0.50000000000E+01 0.  0.
</event>
<event>
 4    1  0.4919875E-001  0.5000050E+01  0.7818608E-02  0.2136455E+00
        -11   -1    0    0    0    0  0.00000000000E+00  0.00000000000E+00  0.50000499739E+01  0.50000500000E+01  0.51100000000E-03 0. -1.
         11   -1    0    0    0    0 -0.00000000000E+00 -0.00000000000E+00 -0.50000499739E+01  0.50000500000E+01  0.51100000000E-03 0.  1.
     100001    1    1    2    0    0  0.14598841157E-01  0.66242585909E-02 -0.15588314052E-01  0.50000500000E+01  0.50000000000E+01 0.  0.
     100001    1    1    2    0    0 -0.14598841157E-01 -0.66242585909E-02  0.15588314052E-01  0.50000500000E+01  0.50000000000E+01 0.  0.
</event>
<event>
 4    1  0.4919875E-001  0.5000050E+01  0.7818608E-02  0.2136455E+00
        -11   -1    0    0    0    0  0.00000000000E+00  0.00000000000E+00  0.50000499739E+01  0.50000500000E+01  0.51100000000E-03 0. -1.
         11   -1    0    0    0    0 -0.00000000000E+00 -0.00000000000E+00 -0.50000499739E+01  0.50000500000E+01  0.51100000000E-03 0.  1.
     100001    1    1    2    0    0  0.35991300301E-02 -0.10411516495E-01  0.19458907659E-01  0.50000500000E+01  0.50000000000E+01 0. -1.
     100001    1    1    2    0    0 -0.35991300301E-02  0.10411516495E-01 -0.19458907659E-01  0.50000500000E+01  0.50000000000E+01 0.  0.
</event>
<event>
 4    1  0.4919875E-001  0.5000050E+01  0.7818608E-02  0.2136455E+00
        -11   -1    0    0    0    0  0.00000000000E+00  0.00000000000E+00  0.50000499739E+01  0.50000500000E+01  0.51100000000E-03 0. -1.
         11   -1    0    0    0    0 -0.00000000000E+00 -0.00000000000E+00 -0.50000499739E+01  0.50000500000E+01  0.51100000000E-03 0.  1.
     100001    1    1    2    0    0 -0.59792854764E-02  0.20264511539E-01  0.73212169258E-02  0.50000500000E+01  0.50000000000E+01 0. -1.
     100001    1    1    2    0    0  0.59792854764E-02 -0.20264511539E-01 -0.73212169258E-02  0.50000500000E+01  0.50000000000E+01 0. -1.
</event>
<event>
 4    1  0.4919875E-001  0.5000050E+01  0.7818608E-02  0.2136455E+00
        -11   -1    0    0    0    0  0.00000000000E+00  0.00000000000E+00  0.50000499739E+01  0.50000500000E+01  0.51100000000E-03 0.  1.
         11   -1    0    0    0    0 -0.00000000000E+00 -0.00000000000E+00 -0.50000499739E+01  0.50000500000E+01  0.51100000000E-03 0. -1.
     100001    1    1    2    0    0  0.33642156114E-02  0.18051543639E-01 -0.12760341906E-01  0.50000500000E+01  0.50000000000E+01 0. -1.
     100001    1    1    2    0    0 -0.33642156114E-02 -0.18051543639E-01  0.12760341906E-01  0.50000500000E+01  0.50000000000E+01 0.  1.
</event>
<event>
 4    1  0.4919875E-001  0.5000050E+01  0.7818608E-02  0.2136455E+00
        -11   -1    0    0    0    0  0.00000000000E+00  0.00000000000E+00  0.50000499739E+01  0.50000500000E+01  0.51100000000E-03 0.  1.
         11   -1    0    0    0    0 -0.00000000000E+00 -0.00000000000E+00 -0.50000499739E+01  0.50000500000E+01  0.51100000000E-03 0. -1.
     100001    1    1    2    0    0  0.18117608791E-01 -0.10847173431E-01 -0.73548338025E-02  0.50000500000E+01  0.50000000000E+01 0.  0.
     100001    1    1    2    0    0 -0.18117608791E-01  0.10847173431E-01  0.73548338025E-02  0.50000500000E+01  0.50000000000E+01 0. -1.
</event>
<event>
 4    1  0.4919875E-001  0.5000050E+01  0.7818608E-02  0.2136455E+00
        -11   -1    0    0    0    0  0.00000000000E+00  0.00000000000E+00  0.50000499739E+01  0.50000500000E+01  0.51100000000E-03 0. -1.
         11   -1    0    0    0    0 -0.00000000000E+00 -0.00000000000E+00 -0.50000499739E+01  0.50000500000E+01  0.51100000000E-03 0.  1.
     100001    1    1    2    0    0  0.63018057331E-02 -0.18174650668E-01 -0.11400518304E-01  0.50000500000E+01  0.50000000000E+01 0. -1.
     100001    1    1    2    0    0 -0.63018057331E-02  0.18174650668E-01  0.11400518304E-01  0.50000500000E+01  0.50000000000E+01 0.  1.
</event>
<event>
 4    1  0.4919875E-001  0.5000050E+01  0.7818608E-02  0.2136455E+00
        -11   -1    0    0    0    0  0.00000000000E+00  0.00000000000E+00  0.50000499739E+01  0.50000500000E+01  0.51100000000E-03 0.  1.
         11   -1    0    0    0    0 -0.00000000000E+00 -0.00000000000E+00 -0.50000499739E+01  0.50000500000E+01  0.51100000000E-03 0. -1.
     100001    1    1    2    0    0  0.13082862459E-01 -0.18123406352E-01  0.61915433094E-03  0.50000500000E+01  0.50000000000E+01 0.  1.
     100001    1    1    2    0    0 -0.13082862459E-01  0.18123406352E-01 -0.61915433094E-03  0.50000500000E+01  0.50000000000E+01 0. -1.
</event>
<event>
 4    1  0.4919875E-001  0.5000050E+01  0.7818608E-02  0.2136455E+00
        -11   -1    0    0    0    0  0.00000000000E+00  0.00000000000E+00  0.50000499739E+01  0.50000500000E+01  0.51100000000E-03 0. -1.
         11   -1    0    0    0    0 -0.00000000000E+00 -0.00000000000E+00 -0.50000499739E+01  0.50000500000E+01  0.51100000000E-03 0.  1.
     100001    1    1    2    0    0 -0.12884100036E-01  0.15982713010E-01 -0.88631456662E-02  0.50000500000E+01  0.50000000000E+01 0.  1.
     100001    1    1    2    0    0  0.12884100036E-01 -0.15982713010E-01  0.88631456662E-02  0.50000500000E+01  0.50000000000E+01 0. -1.
</event>
<event>
 4    1  0.4919875E-001  0.5000050E+01  0.7818608E-02  0.2136455E+00
        -11   -1    0    0    0    0  0.00000000000E+00  0.00000000000E+00  0.50000499739E+01  0.50000500000E+01  0.51100000000E-03 0. -1.
         11   -1    0    0    0    0 -0.00000000000E+00 -0.00000000000E+00 -0.50000499739E+01  0.50000500000E+01  0.51100000000E-03 0.  1.
     100001    1    1    2    0    0  0.64217812485E-02 -0.21210304901E-01 -0.29809715858E-02  0.50000500000E+01  0.50000000000E+01 0.  0.
     100001    1    1    2    0    0 -0.64217812485E-02  0.21210304901E-01  0.29809715858E-02  0.50000500000E+01  0.50000000000E+01 0. -1.
</event>
<event>
 4    1  0.4919875E-001  0.5000050E+01  0.7818608E-02  0.2136455E+00
        -11   -1    0    0    0    0  0.00000000000E+00  0.00000000000E+00  0.50000499739E+01  0.50000500000E+01  0.51100000000E-03 0. -1.
         11   -1    0    0    0    0 -0.00000000000E+00 -0.00000000000E+00 -0.50000499739E+01  0.50000500000E+01  0.51100000000E-03 0.  1.
     100001    1    1    2    0    0  0.22188920135E-01  0.27004338699E-02  0.60164786550E-03  0.50000500000E+01  0.50000000000E+01 0. -1.
     100001    1    1    2    0    0 -0.22188920135E-01 -0.27004338699E-02 -0.60164786550E-03  0.50000500000E+01  0.50000000000E+01 0.  0.
</event>
<event>
 4    1  0.4919875E-001  0.5000050E+01  0.7818608E-02  0.2136455E+00
        -11   -1    0    0    0    0  0.00000000000E+00  0.00000000000E+00  0.50000499739E+01  0.50000500000E+01  0.51100000000E-03 0. -1.
         11   -1    0    0    0    0 -0.00000000000E+00 -0.00000000000E+00 -0.50000499739E+01  0.50000500000E+01  0.51100000000E-03 0.  1.
     100001    1    1    2    0    0 -0.12023369624E-01  0.16588743446E-01  0.89584972932E-02  0.50000500000E+01  0.50000000000E+01 0.  0.
     100001    1    1    2    0    0  0.12023369624E-01 -0.16588743446E-01 -0.89584972932E-02  0.50000500000E+01  0.50000000000E+01 0.  0.
</event>
<event>
 4    1  0.4919875E-001  0.5000050E+01  0.7818608E-02  0.2136455E+00
        -11   -1    0    0    0    0  0.00000000000E+00  0.00000000000E+00  0.50000499739E+01  0.50000500000E+01  0.51100000000E-03 0.  1.
         11   -1    0    0    0    0 -0.00000000000E+00 -0.00000000000E+00 -0.50000499739E+01  0.50000500000E+01  0.51100000000E-03 0. -1.
     100001    1    1    2    0    0  0.33819684690E-02 -0.95495695120E-02  0.19934154394E-01  0.50000500000E+01  0.50000000000E+01 0.  1.
     100001    1    1    2    0    0 -0.33819684690E-02  0.95495695120E-02 -0.19934154394E-01  0.50000500000E+01  0.50000000000E+01 0. -1.
</event>
<event>
 4    1  0.4919875E-001  0.5000050E+01  0.7818608E-02  0.2136455E+00
        -11   -1    0    0    0    0  0.00000000000E+00  0.00000000000E+00  0.50000499739E+01  0.50000500000E+01  0.51100000000E-03 0. -1.
         11   -1    0    0    0    0 -0.00000000000E+00 -0.00000000000E+00 -0.50000499739E+01  0.50000500000E+01  0.51100000000E-03 0.  1.
     100001    1    1    2    0    0  0.60140454072E-02 -0.34509260821E-02  0.21258524573E-01  0.50000500000E+01  0.50000000000E+01 0. -1.
     100001    1    1    2    0    0 -0.60140454072E-02  0.34509260821E-02 -0.21258524573E-01  0.50000500000E+01  0.50000000000E+01 0.  0.
</event>
<event>
 4    1  0.4919875E-001  0.5000050E+01  0.7818608E-02  0.2136455E+00
        -11   -1    0    0    0    0  0.00000000000E+00  0.00000000000E+00  0.50000499739E+01  0.50000500000E+01  0.51100000000E-03 0. -1.
         11   -1    0    0    0    0 -0.00000000000E+00 -0.00000000000E+00 -0.50000499739E+01  0.50000500000E+01  0.51100000000E-03 0.  1.
     100001    1    1    2    0    0  0.96475565396E-02  0.19979302246E-01  0.27847144521E-02  0.50000500000E+01  0.50000000000E+01 0.  1.
     100001    1    1    2    0    0 -0.96475565396E-02 -0.19979302246E-01 -0.27847144521E-02  0.50000500000E+01  0.50000000000E+01 0. -1.
</event>
<event>
 4    1  0.4919875E-001  0.5000050E+01  0.7818608E-02  0.2136455E+00
        -11   -1    0    0    0    0  0.00000000000E+00  0.00000000000E+00  0.50000499739E+01  0.50000500000E+01  0.51100000000E-03 0.  1.
         11   -1    0    0    0    0 -0.00000000000E+00 -0.00000000000E+00 -0.50000499739E+01  0.50000500000E+01  0.51100000000E-03 0. -1.
     100001    1    1    2    0    0 -0.22124875840E-01  0.25928940691E-02  0.19414606377E-02  0.50000500000E+01  0.50000000000E+01 0. -1.
     100001    1    1    2    0    0  0.22124875840E-01 -0.25928940691E-02 -0.19414606377E-02  0.50000500000E+01  0.50000000000E+01 0.  0.
</event>
<event>
 4    1  0.4919875E-001  0.5000050E+01  0.7818608E-02  0.2136455E+00
        -11   -1    0    0    0    0  0.00000000000E+00  0.00000000000E+00  0.50000499739E+01  0.50000500000E+01  0.51100000000E-03 0.  1.
         11   -1    0    0    0    0 -0.00000000000E+00 -0.00000000000E+00 -0.50000499739E+01  0.50000500000E+01  0.51100000000E-03 0. -1.
     100001    1    1    2    0    0 -0.90373916726E-02  0.13699870767E-01 -0.15186888842E-01  0.50000500000E+01  0.50000000000E+01 0. -1.
     100001    1    1    2    0    0  0.90373916726E-02 -0.13699870767E-01  0.15186888842E-01  0.50000500000E+01  0.50000000000E+01 0.  1.
</event>
<event>
 4    1  0.4919875E-001  0.5000050E+01  0.7818608E-02  0.2136455E+00
        -11   -1    0    0    0    0  0.00000000000E+00  0.00000000000E+00  0.50000499739E+01  0.50000500000E+01  0.51100000000E-03 0.  1.
         11   -1    0    0    0    0 -0.00000000000E+00 -0.00000000000E+00 -0.50000499739E+01  0.50000500000E+01  0.51100000000E-03 0. -1.
     100001    1    1    2    0    0 -0.92375929935E-02  0.20331478166E-01 -0.11403382185E-02  0.50000500000E+01  0.50000000000E+01 0. -1.
     100001    1    1    2    0    0  0.92375929935E-02 -0.20331478166E-01  0.11403382185E-02  0.50000500000E+01  0.50000000000E+01 0.  0.
</event>
<event>
 4    1  0.4919875E-001  0.5000050E+01  0.7818608E-02  0.2136455E+00
        -11   -1    0    0    0    0  0.00000000000E+00  0.00000000000E+00  0.50000499739E+01  0.50000500000E+01  0.51100000000E-03 0. -1.
         11   -1    0    0    0    0 -0.00000000000E+00 -0.00000000000E+00 -0.50000499739E+01  0.50000500000E+01  0.51100000000E-03 0.  1.
     100001    1    1    2    0    0  0.10484911569E-01  0.19629404532E-01 -0.21807354516E-02  0.50000500000E+01  0.50000000000E+01 0.  0.
     100001    1    1    2    0    0 -0.10484911569E-01 -0.19629404532E-01  0.21807354516E-02  0.50000500000E+01  0.50000000000E+01 0.  1.
</event>
<event>
 4    1  0.4919875E-001  0.5000050E+01  0.7818608E-02  0.2136455E+00
        -11   -1    0    0    0    0  0.00000000000E+00  0.00000000000E+00  0.50000499739E+01  0.50000500000E+01  0.51100000000E-03 0. -1.
         11   -1    0    0    0    0 -0.00000000000E+00 -0.00000000000E+00 -0.50000499739E+01  0.50000500000E+01  0.51100000000E-03 0.  1.
     100001    1    1    2    0    0 -0.21140599659E-01  0.70311272502E-02 -0.19080869046E-02  0.50000500000E+01  0.50000000000E+01 0. -1.
     100001    1    1    2    0    0  0.21140599659E-01 -0.70311272502E-02  0.19080869046E-02  0.50000500000E+01  0.50000000000E+01 0.  1.
</event>
<event>
 4    1  0.4919875E-001  0.5000050E+01  0.7818608E-02  0.2136455E+00
        -11   -1    0    0    0    0  0.00000000000E+00  0.00000000000E+00  0.50000499739E+01  0.50000500000E+01  0.51100000000E-03 0. -1.
         11   -1    0    0    0    0 -0.00000000000E+00 -0.00000000000E+00 -0.50000499739E+01  0.50000500000E+01  0.51100000000E-03 0.  1.
     100001    1    1    2    0    0 -0.94224886661E-02 -0.17243529535E-01  0.10671452409E-01  0.50000500000E+01  0.50000000000E+01 0. -1.
     100001    1    1    2    0    0  0.94224886661E-02  0.17243529535E-01 -0.10671452409E-01  0.50000500000E+01  0.50000000000E+01 0.  1.
</event>
<event>
 4    1  0.4919875E-001  0.5000050E+01  0.7818608E-02  0.2136455E+00
        -11   -1    0    0    0    0  0.00000000000E+00  0.00000000000E+00  0.50000499739E+01  0.50000500000E+01  0.51100000000E-03 0.  1.
         11   -1    0    0    0    0 -0.00000000000E+00 -0.00000000000E+00 -0.50000499739E+01  0.50000500000E+01  0.51100000000E-03 0. -1.
     100001    1    1    2    0    0  0.52388544318E-02 -0.92218390137E-02 -0.19685390254E-01  0.50000500000E+01  0.50000000000E+01 0.  0.
     100001    1    1    2    0    0 -0.52388544318E-02  0.92218390137E-02  0.19685390254E-01  0.50000500000E+01  0.50000000000E+01 0.  0.
</event>
<event>
 4    1  0.4919875E-001  0.5000050E+01  0.7818608E-02  0.2136455E+00
        -11   -1    0    0    0    0  0.00000000000E+00  0.00000000000E+00  0.50000499739E+01  0.50000500000E+01  0.51100000000E-03 0. -1.
         11   -1    0    0    0    0 -0.00000000000E+00 -0.00000000000E+00 -0.50000499739E+01  0.50000500000E+01  0.51100000000E-03 0.  1.
     100001    1    1    2    0    0 -0.20492072668E-01 -0.83888079686E-02  0.31153424595E-02  0.50000500000E+01  0.50000000000E+01 0. -1.
     100001    1    1    2    0    0  0.20492072668E-01  0.83888079686E-02 -0.31153424595E-02  0.50000500000E+01  0.50000000000E+01 0.  0.
</event>
<event>
 4    1  0.4919875E-001  0.5000050E+01  0.7818608E-02  0.2136455E+00
        -11   -1    0    0    0    0  0.00000000000E+00  0.00000000000E+00  0.50000499739E+01  0.50000500000E+01  0.51100000000E-03 0.  1.
         11   -1    0    0    0    0 -0.00000000000E+00 -0.00000000000E+00 -0.50000499739E+01  0.50000500000E+01  0.51100000000E-03 0. -1.
     100001    1    1    2    0    0  0.17292514614E-01  0.12724677177E-01  0.62493222879E-02  0.50000500000E+01  0.50000000000E+01 0. -1.
     100001    1    1    2    0    0 -0.17292514614E-01 -0.12724677177E-01 -0.62493222879E-02  0.50000500000E+01  0.50000000000E+01 0.  0.
</event>
<event>
 4    1  0.4919875E-001  0.5000050E+01  0.7818608E-02  0.2136455E+00
        -11   -1    0    0    0    0  0.00000000000E+00  0.00000000000E+00  0.50000499739E+01  0.50000500000E+01  0.51100000000E-03 0.  1.
         11   -1    0    0    0    0 -0.00000000000E+00 -0.00000000000E+00 -0.50000499739E+01  0.50000500000E+01  0.51100000000E-03 0. -1.
     100001    1    1    2    0    0  0.11875943586E-02  0.10777386438E-01  0.19556074790E-01  0.50000500000E+01  0.50000000000E+01 0.  1.
     100001    1    1    2    0    0 -0.11875943586E-02 -0.10777386438E-01 -0.19556074790E-01  0.50000500000E+01  0.50000000000E+01 0.  0.
</event>
<event>
 4    1  0.4919875E-001  0.5000050E+01  0.7818608E-02  0.2136455E+00
        -11   -1    0    0    0    0  0.00000000000E+00  0.00000000000E+00  0.50000499739E+01  0.50000500000E+01  0.51100000000E-03 0.  1.
         11   -1    0    0    0    0 -0.00000000000E+00 -0.00000000000E+00 -0.50000499739E+01  0.50000500000E+01  0.51100000000E-03 0. -1.
     100001    1    1    2    0    0  0.19523327227E-01 -0.17768534528E-02 -0.10755695505E-01  0.50000500000E+01  0.50000000000E+01 0.  0.
     100001    1    1    2    0    0 -0.19523327227E-01  0.17768534528E-02  0.10755695505E-01  0.50000500000E+01  0.50000000000E+01 0.  0.
</event>
<event>
 4    1  0.4919875E-001  0.5000050E+01  0.7818608E-02  0.2136455E+00
        -11   -1    0    0    0    0  0.00000000000E+00  0.00000000000E+00  0.50000499739E+01  0.50000500000E+01  0.51100000000E-03 0. -1.
         11   -1    0    0    0    0 -0.00000000000E+00 -0.00000000000E+00 -0.50000499739E+01  0.50000500000E+01  0.51100000000E-03 0.  1.
     100001    1    1    2    0    0  0.33781067788E-02  0.21822762832E-01  0.35153829039E-02  0.50000500000E+01  0.50000000000E+01 0. -1.
     100001    1    1    2    0    0 -0.33781067788E-02 -0.21822762832E-01 -0.35153829039E-02  0.50000500000E+01  0.50000000000E+01 0.  0.
</event>
<event>
 4    1  0.4919875E-001  0.5000050E+01  0.7818608E-02  0.2136455E+00
        -11   -1    0    0    0    0  0.00000000000E+00  0.00000000000E+00  0.50000499739E+01  0.50000500000E+01  0.51100000000E-03 0. -1.
         11   -1    0    0    0    0 -0.00000000000E+00 -0.00000000000E+00 -0.50000499739E+01  0.50000500000E+01  0.51100000000E-03 0.  1.
     100001    1    1    2    0    0  0.13319565483E-01 -0.39120989575E-02 -0.17529608013E-01  0.50000500000E+01  0.50000000000E+01 0.  1.
     100001    1    1    2    0    0 -0.13319565483E-01  0.39120989575E-02  0.17529608013E-01  0.50000500000E+01  0.50000000000E+01 0.  1.
</event>
<event>
 4    1  0.4919875E-001  0.5000050E+01  0.7818608E-02  0.2136455E+00
        -11   -1    0    0    0    0  0.00000000000E+00  0.00000000000E+00  0.50000499739E+01  0.50000500000E+01  0.51100000000E-03 0. -1.
         11   -1    0    0    0    0 -0.00000000000E+00 -0.00000000000E+00 -0.50000499739E+01  0.50000500000E+01  0.51100000000E-03 0.  1.
     100001    1    1    2    0    0 -0.42205639616E-02 -0.11605660610E-01 -0.18641297746E-01  0.50000500000E+01  0.50000000000E+01 0.  0.
     100001    1    1    2    0    0  0.42205639616E-02  0.11605660610E-01  0.18641297746E-01  0.50000500000E+01  0.50000000000E+01 0. -1.
</event>
<event>
 4    1  0.4919875E-001  0.5000050E+01  0.7818608E-02  0.2136455E+00
        -11   -1    0    0    0    0  0.00000000000E+00  0.00000000000E+00  0.50000499739E+01  0.50000500000E+01  0.51100000000E-03 0. -1.
         11   -1    0    0    0    0 -0.00000000000E+00 -0.00000000000E+00 -0.50000499739E+01  0.50000500000E+01  0.51100000000E-03 0.  1.
     100001    1    1    2    0    0 -0.18645176920E-01  0.11276735912E-01  0.50194725595E-02  0.50000500000E+01  0.50000000000E+01 0. -1.
     100001    1    1    2    0    0  0.18645176920E-01 -0.11276735912E-01 -0.50194725595E-02  0.50000500000E+01  0.50000000000E+01 0.  1.
</event>
<event>
 4    1  0.4919875E-001  0.5000050E+01  0.7818608E-02  0.2136455E+00
        -11   -1    0    0    0    0  0.00000000000E+00  0.00000000000E+00  0.50000499739E+01  0.50000500000E+01  0.51100000000E-03 0.  1.
         11   -1    0    0    0    0 -0.00000000000E+00 -0.00000000000E+00 -0.50000499739E+01  0.50000500000E+01  0.51100000000E-03 0. -1.
     100001    1    1    2    0    0  0.71224081686E-02  0.19700230451E-01 -0.78214271110E-02  0.50000500000E+01  0.50000000000E+01 0.  0.
     100001    1    1    2    0    0 -0.71224081686E-02 -0.19700230451E-01  0.78214271110E-02  0.50000500000E+01  0.50000000000E+01 0. -1.
</event>
<event>
 4    1  0.4919875E-001  0.5000050E+01  0.7818608E-02  0.2136455E+00
        -11   -1    0    0    0    0  0.00000000000E+00  0.00000000000E+00  0.50000499739E+01  0.50000500000E+01  0.51100000000E-03 0.  1.
         11   -1    0    0    0    0 -0.00000000000E+00 -0.00000000000E+00 -0.50000499739E+01  0.50000500000E+01  0.51100000000E-03 0. -1.
     100001    1    1    2    0    0  0.16728582933E-01 -0.97704690926E-02  0.11166689159E-01  0.50000500000E+01  0.50000000000E+01 0.  0.
     100001    1    1    2    0    0 -0.16728582933E-01  0.97704690926E-02 -0.11166689159E-01  0.50000500000E+01  0.50000000000E+01 0.  0.
</event>
<event>
 4    1  0.4919875E-001  0.5000050E+01  0.7818608E-02  0.2136455E+00
        -11   -1    0    0    0    0  0.00000000000E+00  0.00000000000E+00  0.50000499739E+01  0.50000500000E+01  0.51100000000E-03 0. -1.
         11   -1    0    0    0    0 -0.00000000000E+00 -0.00000000000E+00 -0.50000499739E+01  0.50000500000E+01  0.51100000000E-03 0.  1.
     100001    1    1    2    0    0  0.88365703341E-02  0.18561381381E-01  0.87973090176E-02  0.50000500000E+01  0.50000000000E+01 0.  1.
     100001    1    1    2    0    0 -0.88365703341E-02 -0.18561381381E-01 -0.87973090176E-02  0.50000500000E+01  0.50000000000E+01 0.  1.
</event>
<event>
 4    1  0.4919875E-001  0.5000050E+01  0.7818608E-02  0.2136455E+00
        -11   -1    0    0    0    0  0.00000000000E+00  0.00000000000E+00  0.50000499739E+01  0.50000500000E+01  0.51100000000E-03 0. -1.
         11   -1    0    0    0    0 -0.00000000000E+00 -0.00000000000E+00 -0.50000499739E+01  0.50000500000E+01  0.51100000000E-03 0.  1.
     100001    1    1    2    0    0 -0.21991581850E-01 -0.31297723082E-02  0.25646350687E-02  0.50000500000E+01  0.50000000000E+01 0.  0.
     100001    1    1    2    0    0  0.21991581850E-01  0.31297723082E-02 -0.25646350687E-02  0.50000500000E+01  0.50000000000E+01 0. -1.
</event>
<event>
 4    1  0.4919875E-001  0.5000050E+01  0.7818608E-02  0.2136455E+00
        -11   -1    0    0    0    0  0.00000000000E+00  0.00000000000E+00  0.50000499739E+01  0.50000500000E+01  0.51100000000E-03 0.  1.
         11   -1    0    0    0    0 -0.00000000000E+00 -0.00000000000E+00 -0.50000499739E+01  0.50000500000E+01  0.51100000000E-03 0. -1.
     100001    1    1    2    0    0  0.14623847463E-02 -0.13098630030E-02  0.22274384161E-01  0.50000500000E+01  0.50000000000E+01 0.  0.
     100001    1    1    2    0    0 -0.14623847463E-02  0.13098630030E-02 -0.22274384161E-01  0.50000500000E+01  0.50000000000E+01 0. -1.
</event>
<event>
 4    1  0.4919875E-001  0.5000050E+01  0.7818608E-02  0.2136455E+00
        -11   -1    0    0    0    0  0.00000000000E+00  0.00000000000E+00  0.50000499739E+01  0.50000500000E+01  0.51100000000E-03 0.  1.
         11   -1    0    0    0    0 -0.00000000000E+00 -0.00000000000E+00 -0.50000499739E+01  0.50000500000E+01  0.51100000000E-03 0. -1.
     100001    1    1    2    0    0 -0.13746806011E-01 -0.70189631536E-02  0.16179059946E-01  0.50000500000E+01  0.50000000000E+01 0.  1.
     100001    1    1    2    0    0  0.13746806011E-01  0.70189631536E-02 -0.16179059946E-01  0.50000500000E+01  0.50000000000E+01 0. -1.
</event>
<event>
 4    1  0.4919875E-001  0.5000050E+01  0.7818608E-02  0.2136455E+00
        -11   -1    0    0    0    0  0.00000000000E+00  0.00000000000E+00  0.50000499739E+01  0.50000500000E+01  0.51100000000E-03 0.  1.
         11   -1    0    0    0    0 -0.00000000000E+00 -0.00000000000E+00 -0.50000499739E+01  0.50000500000E+01  0.51100000000E-03 0. -1.
     100001    1    1    2    0    0 -0.79433701184E-02  0.12520821813E-01  0.16737215787E-01  0.50000500000E+01  0.50000000000E+01 0.  0.
     100001    1    1    2    0    0  0.79433701184E-02 -0.12520821813E-01 -0.16737215787E-01  0.50000500000E+01  0.50000000000E+01 0.  0.
</event>
<event>
 4    1  0.4919875E-001  0.5000050E+01  0.7818608E-02  0.2136455E+00
        -11   -1    0    0    0    0  0.00000000000E+00  0.00000000000E+00  0.50000499739E+01  0.50000500000E+01  0.51100000000E-03 0. -1.
         11   -1    0    0    0    0 -0.00000000000E+00 -0.00000000000E+00 -0.50000499739E+01  0.50000500000E+01  0.51100000000E-03 0.  1.
     100001    1    1    2    0    0 -0.11956935414E-02  0.18112485477E-01 -0.13057974070E-01  0.50000500000E+01  0.50000000000E+01 0. -1.
     100001    1    1    2    0    0  0.11956935414E-02 -0.18112485477E-01  0.13057974070E-01  0.50000500000E+01  0.50000000000E+01 0.  1.
</event>
<event>
 4    1  0.4919875E-001  0.5000050E+01  0.7818608E-02  0.2136455E+00
        -11   -1    0    0    0    0  0.00000000000E+00  0.00000000000E+00  0.50000499739E+01  0.50000500000E+01  0.51100000000E-03 0. -1.
         11   -1    0    0    0    0 -0.00000000000E+00 -0.00000000000E+00 -0.50000499739E+01  0.50000500000E+01  0.51100000000E-03 0.  1.
     100001    1    1    2    0    0 -0.15204896550E-01  0.15657400633E-01 -0.48640956293E-02  0.50000500000E+01  0.50000000000E+01 0.  0.
     100001    1    1    2    0    0  0.15204896550E-01 -0.15657400633E-01  0.48640956293E-02  0.50000500000E+01  0.50000000000E+01 0.  1.
</event>
<event>
 4    1  0.4919875E-001  0.5000050E+01  0.7818608E-02  0.2136455E+00
        -11   -1    0    0    0    0  0.00000000000E+00  0.00000000000E+00  0.50000499739E+01  0.50000500000E+01  0.51100000000E-03 0.  1.
         11   -1    0    0    0    0 -0.00000000000E+00 -0.00000000000E+00 -0.50000499739E+01  0.50000500000E+01  0.51100000000E-03 0. -1.
     100001    1    1    2    0    0 -0.21321895963E-02  0.19787282317E-01  0.10194102513E-01  0.50000500000E+01  0.50000000000E+01 0.  0.
     100001    1    1    2    0    0  0.21321895963E-02 -0.19787282317E-01 -0.10194102513E-01  0.50000500000E+01  0.50000000000E+01 0.  0.
</event>
<event>
 4    1  0.4919875E-001  0.5000050E+01  0.7818608E-02  0.2136455E+00
        -11   -1    0    0    0    0  0.00000000000E+00  0.00000000000E+00  0.50000499739E+01  0.50000500000E+01  0.51100000000E-03 0.  1.
         11   -1    0    0    0    0 -0.00000000000E+00 -0.00000000000E+00 -0.50000499739E+01  0.50000500000E+01  0.51100000000E-03 0. -1.
     100001    1    1    2    0    0  0.63768456947E-02  0.95739233462E-02  0.19174940176E-01  0.50000500000E+01  0.50000000000E+01 0.  1.
     100001    1    1    2    0    0 -0.63768456947E-02 -0.95739233462E-02 -0.19174940176E-01  0.50000500000E+01  0.50000000000E+01 0.  0.
</event>
<event>
 4    1  0.4919875E-001  0.5000050E+01  0.7818608E-02  0.2136455E+00
        -11   -1    0    0    0    0  0.00000000000E+00  0.00000000000E+00  0.50000499739E+01  0.50000500000E+01  0.51100000000E-03 0.  1.
         11   -1    0    0    0    0 -0.00000000000E+00 -0.00000000000E+00 -0.50000499739E+01  0.50000500000E+01  0.51100000000E-03 0. -1.
     100001    1    1    2    0    0 -0.60836967313E-02  0.20930370964E-01 -0.49910625494E-02  0.50000500000E+01  0.50000000000E+01 0. -1.
     100001    1    1    2    0    0  0.60836967313E-02 -0.20930370964E-01  0.49910625494E-02  0.50000500000E+01  0.50000000000E+01 0.  1.
</event>
<event>
 4    1  0.4919875E-001  0.5000050E+01  0.7818608E-02  0.2136455E+00
        -11   -1    0    0    0    0  0.00000000000E+00  0.00000000000E+00  0.50000499739E+01  0.50000500000E+01  0.51100000000E-03 0.  1.
         11   -1    0    0    0    0 -0.00000000000E+00 -0.00000000000E+00 -0.50000499739E+01  0.50000500000E+01  0.51100000000E-03 0. -1.
     100001    1    1    2    0    0  0.65341678483E-03 -0.16013337696E-01 -0.15593221680E-01  0.50000500000E+01  0.50000000000E+01 0.  1.
     100001    1    1    2    0    0 -0.65341678483E-03  0.16013337696E-01  0.15593221680E-01  0.50000500000E+01  0.50000000000E+01 0.  0.
</event>
<event>
 4    1  0.4919875E-001  0.5000050E+01  0.7818608E-02  0.2136455E+00
        -11   -1    0    0    0    0  0.00000000000E+00  0.00000000000E+00  0.50000499739E+01  0.50000500000E+01  0.51100000000E-03 0. -1.
         11   -1    0    0    0    0 -0.00000000000E+00 -0.00000000000E+00 -0.50000499739E+01  0.50000500000E+01  0.51100000000E-03 0.  1.
     100001    1    1    2    0    0  0.15959121633E-01 -0.35272564264E-02 -0.15259993408E-01  0.50000500000E+01  0.50000000000E+01 0.  1.
     100001    1    1    2    0    0 -0.15959121633E-01  0.35272564264E-02  0.15259993408E-01  0.50000500000E+01  0.50000000000E+01 0. -1.
</event>
<event>
 4    1  0.4919875E-001  0.5000050E+01  0.7818608E-02  0.2136455E+00
        -11   -1    0    0    0    0  0.00000000000E+00  0.00000000000E+00  0.50000499739E+01  0.50000500000E+01  0.51100000000E-03 0. -1.
         11   -1    0    0    0    0 -0.00000000000E+00 -0.00000000000E+00 -0.50000499739E+01  0.50000500000E+01  0.51100000000E-03 0.  1.
     100001    1    1    2    0    0  0.11011974442E-01  0.18688772955E-01  0.54285066369E-02  0.50000500000E+01  0.50000000000E+01 0. -1.
     100001    1    1    2    0    0 -0.11011974442E-01 -0.18688772955E-01 -0.54285066369E-02  0.50000500000E+01  0.50000000000E+01 0. -1.
</event>
<event>
 4    1  0.4919875E-001  0.5000050E+01  0.7818608E-02  0.2136455E+00
        -11   -1    0    0    0    0  0.00000000000E+00  0.00000000000E+00  0.50000499739E+01  0.50000500000E+01  0.51100000000E-03 0. -1.
         11   -1    0    0    0    0 -0.00000000000E+00 -0.00000000000E+00 -0.50000499739E+01  0.50000500000E+01  0.51100000000E-03 0.  1.
     100001    1    1    2    0    0 -0.19545130663E-01 -0.69949717925E-02  0.83102789955E-02  0.50000500000E+01  0.50000000000E+01 0. -1.
     100001    1    1    2    0    0  0.19545130663E-01  0.69949717925E-02 -0.83102789955E-02  0.50000500000E+01  0.50000000000E+01 0.  1.
</event>
<event>
 4    1  0.4919875E-001  0.5000050E+01  0.7818608E-02  0.2136455E+00
        -11   -1    0    0    0    0  0.00000000000E+00  0.00000000000E+00  0.50000499739E+01  0.50000500000E+01  0.51100000000E-03 0.  1.
         11   -1    0    0    0    0 -0.00000000000E+00 -0.00000000000E+00 -0.50000499739E+01  0.50000500000E+01  0.51100000000E-03 0. -1.
     100001    1    1    2    0    0 -0.13200820155E-02  0.65746921465E-02  0.21331509713E-01  0.50000500000E+01  0.50000000000E+01 0.  1.
     100001    1    1    2    0    0  0.13200820155E-02 -0.65746921465E-02 -0.21331509713E-01  0.50000500000E+01  0.50000000000E+01 0.  0.
</event>
<event>
 4    1  0.4919875E-001  0.5000050E+01  0.7818608E-02  0.2136455E+00
        -11   -1    0    0    0    0  0.00000000000E+00  0.00000000000E+00  0.50000499739E+01  0.50000500000E+01  0.51100000000E-03 0. -1.
         11   -1    0    0    0    0 -0.00000000000E+00 -0.00000000000E+00 -0.50000499739E+01  0.50000500000E+01  0.51100000000E-03 0.  1.
     100001    1    1    2    0    0 -0.16946566560E-01  0.74890834725E-02 -0.12519185698E-01  0.50000500000E+01  0.50000000000E+01 0.  0.
     100001    1    1    2    0    0  0.16946566560E-01 -0.74890834725E-02  0.12519185698E-01  0.50000500000E+01  0.50000000000E+01 0.  0.
</event>
<event>
 4    1  0.4919875E-001  0.5000050E+01  0.7818608E-02  0.2136455E+00
        -11   -1    0    0    0    0  0.00000000000E+00  0.00000000000E+00  0.50000499739E+01  0.50000500000E+01  0.51100000000E-03 0. -1.
         11   -1    0    0    0    0 -0.00000000000E+00 -0.00000000000E+00 -0.50000499739E+01  0.50000500000E+01  0.51100000000E-03 0.  1.
     100001    1    1    2    0    0  0.29277065823E-02  0.10224778375E-01  0.19669390976E-01  0.50000500000E+01  0.50000000000E+01 0.  0.
     100001    1    1    2    0    0 -0.29277065823E-02 -0.10224778375E-01 -0.19669390976E-01  0.50000500000E+01  0.50000000000E+01 0.  1.
</event>
<event>
 4    1  0.4919875E-001  0.5000050E+01  0.7818608E-02  0.2136455E+00
        -11   -1    0    0    0    0  0.00000000000E+00  0.00000000000E+00  0.50000499739E+01  0.50000500000E+01  0.51100000000E-03 0. -1.
         11   -1    0    0    0    0 -0.00000000000E+00 -0.00000000000E+00 -0.50000499739E+01  0.50000500000E+01  0.51100000000E-03 0.  1.
     100001    1    1    2    0    0  0.76580444888E-02 -0.21006003319E-01 -0.32354156724E-03  0.50000500000E+01  0.50000000000E+01 0.  1.
     100001    1    1    2    0    0 -0.76580444888E-02  0.21006003319E-01  0.32354156724E-03  0.50000500000E+01  0.50000000000E+01 0. -1.
</event>
<event>
 4    1  0.1758285E+000  0.5000050E+01  0.7818608E-02  0.2136455E+00
        -11   -1    0    0    0    0  0.00000000000E+00  0.00000000000E+00  0.50000499739E+01  0.50000500000E+01  0.51100000000E-03 0. -1.
         11   -1    0    0    0    0 -0.00000000000E+00 -0.00000000000E+00 -0.50000499739E+01  0.50000500000E+01  0.51100000000E-03 0.  1.
     100001    1    1    2    0    0  0.30264533035E-02 -0.22678723247E-02  0.22038598765E-01  0.50000500000E+01  0.50000000000E+01 0.  0.
     100001    1    1    2    0    0 -0.30264533035E-02  0.22678723247E-02 -0.22038598765E-01  0.50000500000E+01  0.50000000000E+01 0.  1.
</event>
<event>
 4    1  0.4919875E-001  0.5000050E+01  0.7818608E-02  0.2136455E+00
        -11   -1    0    0    0    0  0.00000000000E+00  0.00000000000E+00  0.50000499739E+01  0.50000500000E+01  0.51100000000E-03 0. -1.
         11   -1    0    0    0    0 -0.00000000000E+00 -0.00000000000E+00 -0.50000499739E+01  0.50000500000E+01  0.51100000000E-03 0.  1.
     100001    1    1    2    0    0  0.12206811971E-01  0.86894476509E-04 -0.18734692174E-01  0.50000500000E+01  0.50000000000E+01 0.  1.
     100001    1    1    2    0    0 -0.12206811971E-01 -0.86894476509E-04  0.18734692174E-01  0.50000500000E+01  0.50000000000E+01 0.  0.
</event>
<event>
 4    1  0.4919875E-001  0.5000050E+01  0.7818608E-02  0.2136455E+00
        -11   -1    0    0    0    0  0.00000000000E+00  0.00000000000E+00  0.50000499739E+01  0.50000500000E+01  0.51100000000E-03 0.  1.
         11   -1    0    0    0    0 -0.00000000000E+00 -0.00000000000E+00 -0.50000499739E+01  0.50000500000E+01  0.51100000000E-03 0. -1.
     100001    1    1    2    0    0 -0.11258144240E-02 -0.16779833589E-01 -0.14736764455E-01  0.50000500000E+01  0.50000000000E+01 0.  1.
     100001    1    1    2    0    0  0.11258144240E-02  0.16779833589E-01  0.14736764455E-01  0.50000500000E+01  0.50000000000E+01 0.  0.
</event>
<event>
 4    1  0.4919875E-001  0.5000050E+01  0.7818608E-02  0.2136455E+00
        -11   -1    0    0    0    0  0.00000000000E+00  0.00000000000E+00  0.50000499739E+01  0.50000500000E+01  0.51100000000E-03 0. -1.
         11   -1    0    0    0    0 -0.00000000000E+00 -0.00000000000E+00 -0.50000499739E+01  0.50000500000E+01  0.51100000000E-03 0.  1.
     100001    1    1    2    0    0  0.18793250171E-01 -0.10371400007E-02 -0.12072306682E-01  0.50000500000E+01  0.50000000000E+01 0.  1.
     100001    1    1    2    0    0 -0.18793250171E-01  0.10371400007E-02  0.12072306682E-01  0.50000500000E+01  0.50000000000E+01 0. -1.
</event>
<event>
 4    1  0.4919875E-001  0.5000050E+01  0.7818608E-02  0.2136455E+00
        -11   -1    0    0    0    0  0.00000000000E+00  0.00000000000E+00  0.50000499739E+01  0.50000500000E+01  0.51100000000E-03 0. -1.
         11   -1    0    0    0    0 -0.00000000000E+00 -0.00000000000E+00 -0.50000499739E+01  0.50000500000E+01  0.51100000000E-03 0.  1.
     100001    1    1    2    0    0  0.10429459642E-02 -0.17657729859E-01  0.13679157136E-01  0.50000500000E+01  0.50000000000E+01 0.  1.
     100001    1    1    2    0    0 -0.10429459642E-02  0.17657729859E-01 -0.13679157136E-01  0.50000500000E+01  0.50000000000E+01 0.  1.
</event>
<event>
 4    1  0.4919875E-001  0.5000050E+01  0.7818608E-02  0.2136455E+00
        -11   -1    0    0    0    0  0.00000000000E+00  0.00000000000E+00  0.50000499739E+01  0.50000500000E+01  0.51100000000E-03 0.  1.
         11   -1    0    0    0    0 -0.00000000000E+00 -0.00000000000E+00 -0.50000499739E+01  0.50000500000E+01  0.51100000000E-03 0. -1.
     100001    1    1    2    0    0  0.14308414437E-01 -0.37933580120E-02 -0.16759540904E-01  0.50000500000E+01  0.50000000000E+01 0.  0.
     100001    1    1    2    0    0 -0.14308414437E-01  0.37933580120E-02  0.16759540904E-01  0.50000500000E+01  0.50000000000E+01 0.  0.
</event>
<event>
 4    1  0.4919875E-001  0.5000050E+01  0.7818608E-02  0.2136455E+00
        -11   -1    0    0    0    0  0.00000000000E+00  0.00000000000E+00  0.50000499739E+01  0.50000500000E+01  0.51100000000E-03 0. -1.
         11   -1    0    0    0    0 -0.00000000000E+00 -0.00000000000E+00 -0.50000499739E+01  0.50000500000E+01  0.51100000000E-03 0.  1.
     100001    1    1    2    0    0 -0.18138331155E-01  0.73177810196E-02 -0.10837597699E-01  0.50000500000E+01  0.50000000000E+01 0.  0.
     100001    1    1    2    0    0  0.18138331155E-01 -0.73177810196E-02  0.10837597699E-01  0.50000500000E+01  0.50000000000E+01 0.  1.
</event>
<event>
 4    1  0.4919875E-001  0.5000050E+01  0.7818608E-02  0.2136455E+00
        -11   -1    0    0    0    0  0.00000000000E+00  0.00000000000E+00  0.50000499739E+01  0.50000500000E+01  0.51100000000E-03 0. -1.
         11   -1    0    0    0    0 -0.00000000000E+00 -0.00000000000E+00 -0.50000499739E+01  0.50000500000E+01  0.51100000000E-03 0.  1.
     100001    1    1    2    0    0 -0.21746774000E-01  0.36863272756E-02  0.36730521078E-02  0.50000500000E+01  0.50000000000E+01 0. -1.
     100001    1    1    2    0    0  0.21746774000E-01 -0.36863272756E-02 -0.36730521078E-02  0.50000500000E+01  0.50000000000E+01 0.  1.
</event>
<event>
 4    1  0.4919875E-001  0.5000050E+01  0.7818608E-02  0.2136455E+00
        -11   -1    0    0    0    0  0.00000000000E+00  0.00000000000E+00  0.50000499739E+01  0.50000500000E+01  0.51100000000E-03 0. -1.
         11   -1    0    0    0    0 -0.00000000000E+00 -0.00000000000E+00 -0.50000499739E+01  0.50000500000E+01  0.51100000000E-03 0.  1.
     100001    1    1    2    0    0 -0.13070587406E-03 -0.19854608320E-01 -0.10284937746E-01  0.50000500000E+01  0.50000000000E+01 0.  1.
     100001    1    1    2    0    0  0.13070587406E-03  0.19854608320E-01  0.10284937746E-01  0.50000500000E+01  0.50000000000E+01 0. -1.
</event>
<event>
 4    1  0.4919875E-001  0.5000050E+01  0.7818608E-02  0.2136455E+00
        -11   -1    0    0    0    0  0.00000000000E+00  0.00000000000E+00  0.50000499739E+01  0.50000500000E+01  0.51100000000E-03 0.  1.
         11   -1    0    0    0    0 -0.00000000000E+00 -0.00000000000E+00 -0.50000499739E+01  0.50000500000E+01  0.51100000000E-03 0. -1.
     100001    1    1    2    0    0  0.20474229463E-01 -0.56861683896E-02  0.69624648612E-02  0.50000500000E+01  0.50000000000E+01 0.  1.
     100001    1    1    2    0    0 -0.20474229463E-01  0.56861683896E-02 -0.69624648612E-02  0.50000500000E+01  0.50000000000E+01 0. -1.
</event>
<event>
 4    1  0.4919875E-001  0.5000050E+01  0.7818608E-02  0.2136455E+00
        -11   -1    0    0    0    0  0.00000000000E+00  0.00000000000E+00  0.50000499739E+01  0.50000500000E+01  0.51100000000E-03 0. -1.
         11   -1    0    0    0    0 -0.00000000000E+00 -0.00000000000E+00 -0.50000499739E+01  0.50000500000E+01  0.51100000000E-03 0.  1.
     100001    1    1    2    0    0  0.14880347553E-01  0.11259874566E-01 -0.12320429434E-01  0.50000500000E+01  0.50000000000E+01 0.  1.
     100001    1    1    2    0    0 -0.14880347553E-01 -0.11259874566E-01  0.12320429434E-01  0.50000500000E+01  0.50000000000E+01 0. -1.
</event>
<event>
 4    1  0.4919875E-001  0.5000050E+01  0.7818608E-02  0.2136455E+00
        -11   -1    0    0    0    0  0.00000000000E+00  0.00000000000E+00  0.50000499739E+01  0.50000500000E+01  0.51100000000E-03 0.  1.
         11   -1    0    0    0    0 -0.00000000000E+00 -0.00000000000E+00 -0.50000499739E+01  0.50000500000E+01  0.51100000000E-03 0. -1.
     100001    1    1    2    0    0 -0.16560820620E-01 -0.10778662206E-01  0.10467194535E-01  0.50000500000E+01  0.50000000000E+01 0.  0.
     100001    1    1    2    0    0  0.16560820620E-01  0.10778662206E-01 -0.10467194535E-01  0.50000500000E+01  0.50000000000E+01 0.  0.
</event>
<event>
 4    1  0.4919875E-001  0.5000050E+01  0.7818608E-02  0.2136455E+00
        -11   -1    0    0    0    0  0.00000000000E+00  0.00000000000E+00  0.50000499739E+01  0.50000500000E+01  0.51100000000E-03 0. -1.
         11   -1    0    0    0    0 -0.00000000000E+00 -0.00000000000E+00 -0.50000499739E+01  0.50000500000E+01  0.51100000000E-03 0.  1.
     100001    1    1    2    0    0  0.53241342644E-02  0.19229988131E-01 -0.10092752391E-01  0.50000500000E+01  0.50000000000E+01 0.  0.
     100001    1    1    2    0    0 -0.53241342644E-02 -0.19229988131E-01  0.10092752391E-01  0.50000500000E+01  0.50000000000E+01 0.  0.
</event>
<event>
 4    1  0.4919875E-001  0.5000050E+01  0.7818608E-02  0.2136455E+00
        -11   -1    0    0    0    0  0.00000000000E+00  0.00000000000E+00  0.50000499739E+01  0.50000500000E+01  0.51100000000E-03 0.  1.
         11   -1    0    0    0    0 -0.00000000000E+00 -0.00000000000E+00 -0.50000499739E+01  0.50000500000E+01  0.51100000000E-03 0. -1.
     100001    1    1    2    0    0  0.99084523547E-02 -0.18740247969E-01  0.71153480572E-02  0.50000500000E+01  0.50000000000E+01 0.  1.
     100001    1    1    2    0    0 -0.99084523547E-02  0.18740247969E-01 -0.71153480572E-02  0.50000500000E+01  0.50000000000E+01 0. -1.
</event>
<event>
 4    1  0.4919875E-001  0.5000050E+01  0.7818608E-02  0.2136455E+00
        -11   -1    0    0    0    0  0.00000000000E+00  0.00000000000E+00  0.50000499739E+01  0.50000500000E+01  0.51100000000E-03 0.  1.
         11   -1    0    0    0    0 -0.00000000000E+00 -0.00000000000E+00 -0.50000499739E+01  0.50000500000E+01  0.51100000000E-03 0. -1.
     100001    1    1    2    0    0 -0.13328549582E-01  0.17075350642E-01  0.55483931472E-02  0.50000500000E+01  0.50000000000E+01 0.  1.
     100001    1    1    2    0    0  0.13328549582E-01 -0.17075350642E-01 -0.55483931472E-02  0.50000500000E+01  0.50000000000E+01 0. -1.
</event>
<event>
 4    1  0.4919875E-001  0.5000050E+01  0.7818608E-02  0.2136455E+00
        -11   -1    0    0    0    0  0.00000000000E+00  0.00000000000E+00  0.50000499739E+01  0.50000500000E+01  0.51100000000E-03 0.  1.
         11   -1    0    0    0    0 -0.00000000000E+00 -0.00000000000E+00 -0.50000499739E+01  0.50000500000E+01  0.51100000000E-03 0. -1.
     100001    1    1    2    0    0  0.17582739646E-01 -0.12185050879E-01  0.65095546415E-02  0.50000500000E+01  0.50000000000E+01 0.  1.
     100001    1    1    2    0    0 -0.17582739646E-01  0.12185050879E-01 -0.65095546415E-02  0.50000500000E+01  0.50000000000E+01 0. -1.
</event>
<event>
 4    1  0.4919875E-001  0.5000050E+01  0.7818608E-02  0.2136455E+00
        -11   -1    0    0    0    0  0.00000000000E+00  0.00000000000E+00  0.50000499739E+01  0.50000500000E+01  0.51100000000E-03 0. -1.
         11   -1    0    0    0    0 -0.00000000000E+00 -0.00000000000E+00 -0.50000499739E+01  0.50000500000E+01  0.51100000000E-03 0.  1.
     100001    1    1    2    0    0 -0.44060251767E-03 -0.16281473308E-01  0.15320639554E-01  0.50000500000E+01  0.50000000000E+01 0. -1.
     100001    1    1    2    0    0  0.44060251767E-03  0.16281473308E-01 -0.15320639554E-01  0.50000500000E+01  0.50000000000E+01 0.  1.
</event>
<event>
 4    1  0.4919875E-001  0.5000050E+01  0.7818608E-02  0.2136455E+00
        -11   -1    0    0    0    0  0.00000000000E+00  0.00000000000E+00  0.50000499739E+01  0.50000500000E+01  0.51100000000E-03 0.  1.
         11   -1    0    0    0    0 -0.00000000000E+00 -0.00000000000E+00 -0.50000499739E+01  0.50000500000E+01  0.51100000000E-03 0. -1.
     100001    1    1    2    0    0 -0.63253055476E-02  0.17442084557E-01 -0.12480652868E-01  0.50000500000E+01  0.50000000000E+01 0.  0.
     100001    1    1    2    0    0  0.63253055476E-02 -0.17442084557E-01  0.12480652868E-01  0.50000500000E+01  0.50000000000E+01 0.  0.
</event>
<event>
 4    1  0.4919875E-001  0.5000050E+01  0.7818608E-02  0.2136455E+00
        -11   -1    0    0    0    0  0.00000000000E+00  0.00000000000E+00  0.50000499739E+01  0.50000500000E+01  0.51100000000E-03 0.  1.
         11   -1    0    0    0    0 -0.00000000000E+00 -0.00000000000E+00 -0.50000499739E+01  0.50000500000E+01  0.51100000000E-03 0. -1.
     100001    1    1    2    0    0 -0.94369803419E-02 -0.17620599439E-01  0.10022992439E-01  0.50000500000E+01  0.50000000000E+01 0.  1.
     100001    1    1    2    0    0  0.94369803419E-02  0.17620599439E-01 -0.10022992439E-01  0.50000500000E+01  0.50000000000E+01 0. -1.
</event>
<event>
 4    1  0.4919875E-001  0.5000050E+01  0.7818608E-02  0.2136455E+00
        -11   -1    0    0    0    0  0.00000000000E+00  0.00000000000E+00  0.50000499739E+01  0.50000500000E+01  0.51100000000E-03 0. -1.
         11   -1    0    0    0    0 -0.00000000000E+00 -0.00000000000E+00 -0.50000499739E+01  0.50000500000E+01  0.51100000000E-03 0.  1.
     100001    1    1    2    0    0 -0.18775995907E-01 -0.28863057975E-02  0.11795495604E-01  0.50000500000E+01  0.50000000000E+01 0.  0.
     100001    1    1    2    0    0  0.18775995907E-01  0.28863057975E-02 -0.11795495604E-01  0.50000500000E+01  0.50000000000E+01 0. -1.
</event>
<event>
 4    1  0.4919875E-001  0.5000050E+01  0.7818608E-02  0.2136455E+00
        -11   -1    0    0    0    0  0.00000000000E+00  0.00000000000E+00  0.50000499739E+01  0.50000500000E+01  0.51100000000E-03 0.  1.
         11   -1    0    0    0    0 -0.00000000000E+00 -0.00000000000E+00 -0.50000499739E+01  0.50000500000E+01  0.51100000000E-03 0. -1.
     100001    1    1    2    0    0  0.82754991277E-02  0.18726813552E-01  0.89902763242E-02  0.50000500000E+01  0.50000000000E+01 0.  0.
     100001    1    1    2    0    0 -0.82754991277E-02 -0.18726813552E-01 -0.89902763242E-02  0.50000500000E+01  0.50000000000E+01 0.  1.
</event>
<event>
 4    1  0.4919875E-001  0.5000050E+01  0.7818608E-02  0.2136455E+00
        -11   -1    0    0    0    0  0.00000000000E+00  0.00000000000E+00  0.50000499739E+01  0.50000500000E+01  0.51100000000E-03 0.  1.
         11   -1    0    0    0    0 -0.00000000000E+00 -0.00000000000E+00 -0.50000499739E+01  0.50000500000E+01  0.51100000000E-03 0. -1.
     100001    1    1    2    0    0 -0.11012282238E-01  0.14372968377E-01  0.13120591447E-01  0.50000500000E+01  0.50000000000E+01 0.  1.
     100001    1    1    2    0    0  0.11012282238E-01 -0.14372968377E-01 -0.13120591447E-01  0.50000500000E+01  0.50000000000E+01 0. -1.
</event>
<event>
 4    1  0.4919875E-001  0.5000050E+01  0.7818608E-02  0.2136455E+00
        -11   -1    0    0    0    0  0.00000000000E+00  0.00000000000E+00  0.50000499739E+01  0.50000500000E+01  0.51100000000E-03 0.  1.
         11   -1    0    0    0    0 -0.00000000000E+00 -0.00000000000E+00 -0.50000499739E+01  0.50000500000E+01  0.51100000000E-03 0. -1.
     100001    1    1    2    0    0  0.37681820541E-03 -0.37777320877E-02 -0.22036089678E-01  0.50000500000E+01  0.50000000000E+01 0.  0.
     100001    1    1    2    0    0 -0.37681820541E-03  0.37777320877E-02  0.22036089678E-01  0.50000500000E+01  0.50000000000E+01 0.  0.
</event>
<event>
 4    1  0.4919875E-001  0.5000050E+01  0.7818608E-02  0.2136455E+00
        -11   -1    0    0    0    0  0.00000000000E+00  0.00000000000E+00  0.50000499739E+01  0.50000500000E+01  0.51100000000E-03 0. -1.
         11   -1    0    0    0    0 -0.00000000000E+00 -0.00000000000E+00 -0.50000499739E+01  0.50000500000E+01  0.51100000000E-03 0.  1.
     100001    1    1    2    0    0  0.42555546616E-02  0.18034044490E-01 -0.12516628694E-01  0.50000500000E+01  0.50000000000E+01 0.  1.
     100001    1    1    2    0    0 -0.42555546616E-02 -0.18034044490E-01  0.12516628694E-01  0.50000500000E+01  0.50000000000E+01 0. -1.
</event>
<event>
 4    1  0.4919875E-001  0.5000050E+01  0.7818608E-02  0.2136455E+00
        -11   -1    0    0    0    0  0.00000000000E+00  0.00000000000E+00  0.50000499739E+01  0.50000500000E+01  0.51100000000E-03 0. -1.
         11   -1    0    0    0    0 -0.00000000000E+00 -0.00000000000E+00 -0.50000499739E+01  0.50000500000E+01  0.51100000000E-03 0.  1.
     100001    1    1    2    0    0  0.64446300073E-02 -0.26664718432E-02  0.21245215273E-01  0.50000500000E+01  0.50000000000E+01 0.  0.
     100001    1    1    2    0    0 -0.64446300073E-02  0.26664718432E-02 -0.21245215273E-01  0.50000500000E+01  0.50000000000E+01 0.  0.
</event>
<event>
 4    1  0.4919875E-001  0.5000050E+01  0.7818608E-02  0.2136455E+00
        -11   -1    0    0    0    0  0.00000000000E+00  0.00000000000E+00  0.50000499739E+01  0.50000500000E+01  0.51100000000E-03 0. -1.
         11   -1    0    0    0    0 -0.00000000000E+00 -0.00000000000E+00 -0.50000499739E+01  0.50000500000E+01  0.51100000000E-03 0.  1.
     100001    1    1    2    0    0 -0.14701515663E-01  0.44595401202E-02 -0.16247474854E-01  0.50000500000E+01  0.50000000000E+01 0.  0.
     100001    1    1    2    0    0  0.14701515663E-01 -0.44595401202E-02  0.16247474854E-01  0.50000500000E+01  0.50000000000E+01 0.  0.
</event>
<event>
 4    1  0.4919875E-001  0.5000050E+01  0.7818608E-02  0.2136455E+00
        -11   -1    0    0    0    0  0.00000000000E+00  0.00000000000E+00  0.50000499739E+01  0.50000500000E+01  0.51100000000E-03 0.  1.
         11   -1    0    0    0    0 -0.00000000000E+00 -0.00000000000E+00 -0.50000499739E+01  0.50000500000E+01  0.51100000000E-03 0. -1.
     100001    1    1    2    0    0  0.71018477388E-02  0.13886151477E-01 -0.16023141260E-01  0.50000500000E+01  0.50000000000E+01 0. -1.
     100001    1    1    2    0    0 -0.71018477388E-02 -0.13886151477E-01  0.16023141260E-01  0.50000500000E+01  0.50000000000E+01 0.  1.
</event>
<event>
 4    1  0.4919875E-001  0.5000050E+01  0.7818608E-02  0.2136455E+00
        -11   -1    0    0    0    0  0.00000000000E+00  0.00000000000E+00  0.50000499739E+01  0.50000500000E+01  0.51100000000E-03 0.  1.
         11   -1    0    0    0    0 -0.00000000000E+00 -0.00000000000E+00 -0.50000499739E+01  0.50000500000E+01  0.51100000000E-03 0. -1.
     100001    1    1    2    0    0  0.17012242494E-01 -0.67018512907E-03  0.14496101449E-01  0.50000500000E+01  0.50000000000E+01 0.  1.
     100001    1    1    2    0    0 -0.17012242494E-01  0.67018512907E-03 -0.14496101449E-01  0.50000500000E+01  0.50000000000E+01 0.  0.
</event>
<event>
 4    1  0.4919875E-001  0.5000050E+01  0.7818608E-02  0.2136455E+00
        -11   -1    0    0    0    0  0.00000000000E+00  0.00000000000E+00  0.50000499739E+01  0.50000500000E+01  0.51100000000E-03 0.  1.
         11   -1    0    0    0    0 -0.00000000000E+00 -0.00000000000E+00 -0.50000499739E+01  0.50000500000E+01  0.51100000000E-03 0. -1.
     100001    1    1    2    0    0 -0.22265263380E-03  0.12400252378E-01  0.18606092195E-01  0.50000500000E+01  0.50000000000E+01 0.  1.
     100001    1    1    2    0    0  0.22265263380E-03 -0.12400252378E-01 -0.18606092195E-01  0.50000500000E+01  0.50000000000E+01 0.  0.
</event>
<event>
 4    1  0.4919875E-001  0.5000050E+01  0.7818608E-02  0.2136455E+00
        -11   -1    0    0    0    0  0.00000000000E+00  0.00000000000E+00  0.50000499739E+01  0.50000500000E+01  0.51100000000E-03 0.  1.
         11   -1    0    0    0    0 -0.00000000000E+00 -0.00000000000E+00 -0.50000499739E+01  0.50000500000E+01  0.51100000000E-03 0. -1.
     100001    1    1    2    0    0 -0.10356195176E-01 -0.19740677280E-01 -0.17485371067E-02  0.50000500000E+01  0.50000000000E+01 0.  1.
     100001    1    1    2    0    0  0.10356195176E-01  0.19740677280E-01  0.17485371067E-02  0.50000500000E+01  0.50000000000E+01 0. -1.
</event>
<event>
 4    1  0.4919875E-001  0.5000050E+01  0.7818608E-02  0.2136455E+00
        -11   -1    0    0    0    0  0.00000000000E+00  0.00000000000E+00  0.50000499739E+01  0.50000500000E+01  0.51100000000E-03 0. -1.
         11   -1    0    0    0    0 -0.00000000000E+00 -0.00000000000E+00 -0.50000499739E+01  0.50000500000E+01  0.51100000000E-03 0.  1.
     100001    1    1    2    0    0  0.84015974392E-03  0.46699854892E-02  0.21851495764E-01  0.50000500000E+01  0.50000000000E+01 0. -1.
     100001    1    1    2    0    0 -0.84015974392E-03 -0.46699854892E-02 -0.21851495764E-01  0.50000500000E+01  0.50000000000E+01 0.  0.
</event>
<event>
 4    1  0.4919875E-001  0.5000050E+01  0.7818608E-02  0.2136455E+00
        -11   -1    0    0    0    0  0.00000000000E+00  0.00000000000E+00  0.50000499739E+01  0.50000500000E+01  0.51100000000E-03 0.  1.
         11   -1    0    0    0    0 -0.00000000000E+00 -0.00000000000E+00 -0.50000499739E+01  0.50000500000E+01  0.51100000000E-03 0. -1.
     100001    1    1    2    0    0 -0.11851521515E-01  0.18872896885E-01  0.18324030536E-02  0.50000500000E+01  0.50000000000E+01 0. -1.
     100001    1    1    2    0    0  0.11851521515E-01 -0.18872896885E-01 -0.18324030536E-02  0.50000500000E+01  0.50000000000E+01 0.  1.
</event>
<event>
 4    1  0.4919875E-001  0.5000050E+01  0.7818608E-02  0.2136455E+00
        -11   -1    0    0    0    0  0.00000000000E+00  0.00000000000E+00  0.50000499739E+01  0.50000500000E+01  0.51100000000E-03 0. -1.
         11   -1    0    0    0    0 -0.00000000000E+00 -0.00000000000E+00 -0.50000499739E+01  0.50000500000E+01  0.51100000000E-03 0.  1.
     100001    1    1    2    0    0 -0.27171896505E-02  0.22173679845E-01 -0.97329467557E-03  0.50000500000E+01  0.50000000000E+01 0.  0.
     100001    1    1    2    0    0  0.27171896505E-02 -0.22173679845E-01  0.97329467557E-03  0.50000500000E+01  0.50000000000E+01 0.  1.
</event>
<event>
 4    1  0.4919875E-001  0.5000050E+01  0.7818608E-02  0.2136455E+00
        -11   -1    0    0    0    0  0.00000000000E+00  0.00000000000E+00  0.50000499739E+01  0.50000500000E+01  0.51100000000E-03 0. -1.
         11   -1    0    0    0    0 -0.00000000000E+00 -0.00000000000E+00 -0.50000499739E+01  0.50000500000E+01  0.51100000000E-03 0.  1.
     100001    1    1    2    0    0  0.16872860727E-01 -0.36579352489E-02 -0.14210157655E-01  0.50000500000E+01  0.50000000000E+01 0.  0.
     100001    1    1    2    0    0 -0.16872860727E-01  0.36579352489E-02  0.14210157655E-01  0.50000500000E+01  0.50000000000E+01 0.  0.
</event>
<event>
 4    1  0.4919875E-001  0.5000050E+01  0.7818608E-02  0.2136455E+00
        -11   -1    0    0    0    0  0.00000000000E+00  0.00000000000E+00  0.50000499739E+01  0.50000500000E+01  0.51100000000E-03 0. -1.
         11   -1    0    0    0    0 -0.00000000000E+00 -0.00000000000E+00 -0.50000499739E+01  0.50000500000E+01  0.51100000000E-03 0.  1.
     100001    1    1    2    0    0  0.16436834856E-01  0.50392859130E-02 -0.14298201194E-01  0.50000500000E+01  0.50000000000E+01 0. -1.
     100001    1    1    2    0    0 -0.16436834856E-01 -0.50392859130E-02  0.14298201194E-01  0.50000500000E+01  0.50000000000E+01 0. -1.
</event>
<event>
 4    1  0.4919875E-001  0.5000050E+01  0.7818608E-02  0.2136455E+00
        -11   -1    0    0    0    0  0.00000000000E+00  0.00000000000E+00  0.50000499739E+01  0.50000500000E+01  0.51100000000E-03 0. -1.
         11   -1    0    0    0    0 -0.00000000000E+00 -0.00000000000E+00 -0.50000499739E+01  0.50000500000E+01  0.51100000000E-03 0.  1.
     100001    1    1    2    0    0 -0.20318563928E-01 -0.84108643449E-02 -0.40516442204E-02  0.50000500000E+01  0.50000000000E+01 0.  1.
     100001    1    1    2    0    0  0.20318563928E-01  0.84108643449E-02  0.40516442204E-02  0.50000500000E+01  0.50000000000E+01 0. -1.
</event>
<event>
 4    1  0.4919875E-001  0.5000050E+01  0.7818608E-02  0.2136455E+00
        -11   -1    0    0    0    0  0.00000000000E+00  0.00000000000E+00  0.50000499739E+01  0.50000500000E+01  0.51100000000E-03 0. -1.
         11   -1    0    0    0    0 -0.00000000000E+00 -0.00000000000E+00 -0.50000499739E+01  0.50000500000E+01  0.51100000000E-03 0.  1.
     100001    1    1    2    0    0 -0.72425226582E-03 -0.37093407145E-02  0.22039027885E-01  0.50000500000E+01  0.50000000000E+01 0.  0.
     100001    1    1    2    0    0  0.72425226582E-03  0.37093407145E-02 -0.22039027885E-01  0.50000500000E+01  0.50000000000E+01 0.  1.
</event>
<event>
 4    1  0.4919875E-001  0.5000050E+01  0.7818608E-02  0.2136455E+00
        -11   -1    0    0    0    0  0.00000000000E+00  0.00000000000E+00  0.50000499739E+01  0.50000500000E+01  0.51100000000E-03 0. -1.
         11   -1    0    0    0    0 -0.00000000000E+00 -0.00000000000E+00 -0.50000499739E+01  0.50000500000E+01  0.51100000000E-03 0.  1.
     100001    1    1    2    0    0 -0.67973825889E-02  0.10315203546E-01 -0.18638526383E-01  0.50000500000E+01  0.50000000000E+01 0.  1.
     100001    1    1    2    0    0  0.67973825889E-02 -0.10315203546E-01  0.18638526383E-01  0.50000500000E+01  0.50000000000E+01 0. -1.
</event>
<event>
 4    1  0.4919875E-001  0.5000050E+01  0.7818608E-02  0.2136455E+00
        -11   -1    0    0    0    0  0.00000000000E+00  0.00000000000E+00  0.50000499739E+01  0.50000500000E+01  0.51100000000E-03 0.  1.
         11   -1    0    0    0    0 -0.00000000000E+00 -0.00000000000E+00 -0.50000499739E+01  0.50000500000E+01  0.51100000000E-03 0. -1.
     100001    1    1    2    0    0  0.17411711370E-01  0.11552444376E-01  0.79608941780E-02  0.50000500000E+01  0.50000000000E+01 0.  0.
     100001    1    1    2    0    0 -0.17411711370E-01 -0.11552444376E-01 -0.79608941780E-02  0.50000500000E+01  0.50000000000E+01 0.  1.
</event>
<event>
 4    1  0.4919875E-001  0.5000050E+01  0.7818608E-02  0.2136455E+00
        -11   -1    0    0    0    0  0.00000000000E+00  0.00000000000E+00  0.50000499739E+01  0.50000500000E+01  0.51100000000E-03 0. -1.
         11   -1    0    0    0    0 -0.00000000000E+00 -0.00000000000E+00 -0.50000499739E+01  0.50000500000E+01  0.51100000000E-03 0.  1.
     100001    1    1    2    0    0 -0.18174685815E-01 -0.12510348915E-01 -0.36296646605E-02  0.50000500000E+01  0.50000000000E+01 0.  1.
     100001    1    1    2    0    0  0.18174685815E-01  0.12510348915E-01  0.36296646605E-02  0.50000500000E+01  0.50000000000E+01 0. -1.
</event>
<event>
 4    1  0.4919875E-001  0.5000050E+01  0.7818608E-02  0.2136455E+00
        -11   -1    0    0    0    0  0.00000000000E+00  0.00000000000E+00  0.50000499739E+01  0.50000500000E+01  0.51100000000E-03 0. -1.
         11   -1    0    0    0    0 -0.00000000000E+00 -0.00000000000E+00 -0.50000499739E+01  0.50000500000E+01  0.51100000000E-03 0.  1.
     100001    1    1    2    0    0 -0.11397506531E-01  0.18259944527E-02  0.19151111956E-01  0.50000500000E+01  0.50000000000E+01 0. -1.
     100001    1    1    2    0    0  0.11397506531E-01 -0.18259944527E-02 -0.19151111956E-01  0.50000500000E+01  0.50000000000E+01 0.  0.
</event>
<event>
 4    1  0.4919875E-001  0.5000050E+01  0.7818608E-02  0.2136455E+00
        -11   -1    0    0    0    0  0.00000000000E+00  0.00000000000E+00  0.50000499739E+01  0.50000500000E+01  0.51100000000E-03 0.  1.
         11   -1    0    0    0    0 -0.00000000000E+00 -0.00000000000E+00 -0.50000499739E+01  0.50000500000E+01  0.51100000000E-03 0. -1.
     100001    1    1    2    0    0  0.13498073648E-01 -0.56893906657E-02 -0.16894831803E-01  0.50000500000E+01  0.50000000000E+01 0.  0.
     100001    1    1    2    0    0 -0.13498073648E-01  0.56893906657E-02  0.16894831803E-01  0.50000500000E+01  0.50000000000E+01 0.  0.
</event>
<event>
 4    1  0.4919875E-001  0.5000050E+01  0.7818608E-02  0.2136455E+00
        -11   -1    0    0    0    0  0.00000000000E+00  0.00000000000E+00  0.50000499739E+01  0.50000500000E+01  0.51100000000E-03 0. -1.
         11   -1    0    0    0    0 -0.00000000000E+00 -0.00000000000E+00 -0.50000499739E+01  0.50000500000E+01  0.51100000000E-03 0.  1.
     100001    1    1    2    0    0  0.85529984753E-02  0.11004879392E-01  0.17485461008E-01  0.50000500000E+01  0.50000000000E+01 0.  0.
     100001    1    1    2    0    0 -0.85529984753E-02 -0.11004879392E-01 -0.17485461008E-01  0.50000500000E+01  0.50000000000E+01 0.  0.
</event>
<event>
 4    1  0.4919875E-001  0.5000050E+01  0.7818608E-02  0.2136455E+00
        -11   -1    0    0    0    0  0.00000000000E+00  0.00000000000E+00  0.50000499739E+01  0.50000500000E+01  0.51100000000E-03 0.  1.
         11   -1    0    0    0    0 -0.00000000000E+00 -0.00000000000E+00 -0.50000499739E+01  0.50000500000E+01  0.51100000000E-03 0. -1.
     100001    1    1    2    0    0  0.80740815646E-02  0.17404460817E-02 -0.20779378102E-01  0.50000500000E+01  0.50000000000E+01 0. -1.
     100001    1    1    2    0    0 -0.80740815646E-02 -0.17404460817E-02  0.20779378102E-01  0.50000500000E+01  0.50000000000E+01 0.  1.
</event>
<event>
 4    1  0.4919875E-001  0.5000050E+01  0.7818608E-02  0.2136455E+00
        -11   -1    0    0    0    0  0.00000000000E+00  0.00000000000E+00  0.50000499739E+01  0.50000500000E+01  0.51100000000E-03 0. -1.
         11   -1    0    0    0    0 -0.00000000000E+00 -0.00000000000E+00 -0.50000499739E+01  0.50000500000E+01  0.51100000000E-03 0.  1.
     100001    1    1    2    0    0 -0.49925577259E-02 -0.19009425641E-01  0.10663892542E-01  0.50000500000E+01  0.50000000000E+01 0. -1.
     100001    1    1    2    0    0  0.49925577259E-02  0.19009425641E-01 -0.10663892542E-01  0.50000500000E+01  0.50000000000E+01 0. -1.
</event>
<event>
 4    1  0.4919875E-001  0.5000050E+01  0.7818608E-02  0.2136455E+00
        -11   -1    0    0    0    0  0.00000000000E+00  0.00000000000E+00  0.50000499739E+01  0.50000500000E+01  0.51100000000E-03 0.  1.
         11   -1    0    0    0    0 -0.00000000000E+00 -0.00000000000E+00 -0.50000499739E+01  0.50000500000E+01  0.51100000000E-03 0. -1.
     100001    1    1    2    0    0  0.38465914941E-02  0.14927237113E-01 -0.16198266144E-01  0.50000500000E+01  0.50000000000E+01 0.  0.
     100001    1    1    2    0    0 -0.38465914941E-02 -0.14927237113E-01  0.16198266144E-01  0.50000500000E+01  0.50000000000E+01 0.  0.
</event>
<event>
 4    1  0.4919875E-001  0.5000050E+01  0.7818608E-02  0.2136455E+00
        -11   -1    0    0    0    0  0.00000000000E+00  0.00000000000E+00  0.50000499739E+01  0.50000500000E+01  0.51100000000E-03 0.  1.
         11   -1    0    0    0    0 -0.00000000000E+00 -0.00000000000E+00 -0.50000499739E+01  0.50000500000E+01  0.51100000000E-03 0. -1.
     100001    1    1    2    0    0  0.12497883784E-01 -0.15374625330E-01  0.10364665788E-01  0.50000500000E+01  0.50000000000E+01 0.  1.
     100001    1    1    2    0    0 -0.12497883784E-01  0.15374625330E-01 -0.10364665788E-01  0.50000500000E+01  0.50000000000E+01 0. -1.
</event>
<event>
 4    1  0.4919875E-001  0.5000050E+01  0.7818608E-02  0.2136455E+00
        -11   -1    0    0    0    0  0.00000000000E+00  0.00000000000E+00  0.50000499739E+01  0.50000500000E+01  0.51100000000E-03 0.  1.
         11   -1    0    0    0    0 -0.00000000000E+00 -0.00000000000E+00 -0.50000499739E+01  0.50000500000E+01  0.51100000000E-03 0. -1.
     100001    1    1    2    0    0 -0.19323544666E-01  0.90819256857E-02 -0.66424202940E-02  0.50000500000E+01  0.50000000000E+01 0.  1.
     100001    1    1    2    0    0  0.19323544666E-01 -0.90819256857E-02  0.66424202940E-02  0.50000500000E+01  0.50000000000E+01 0. -1.
</event>
<event>
 4    1  0.4919875E-001  0.5000050E+01  0.7818608E-02  0.2136455E+00
        -11   -1    0    0    0    0  0.00000000000E+00  0.00000000000E+00  0.50000499739E+01  0.50000500000E+01  0.51100000000E-03 0.  1.
         11   -1    0    0    0    0 -0.00000000000E+00 -0.00000000000E+00 -0.50000499739E+01  0.50000500000E+01  0.51100000000E-03 0. -1.
     100001    1    1    2    0    0  0.14453259566E-02  0.19163780821E-01  0.11430793390E-01  0.50000500000E+01  0.50000000000E+01 0.  1.
     100001    1    1    2    0    0 -0.14453259566E-02 -0.19163780821E-01 -0.11430793390E-01  0.50000500000E+01  0.50000000000E+01 0. -1.
</event>
<event>
 4    1  0.4919875E-001  0.5000050E+01  0.7818608E-02  0.2136455E+00
        -11   -1    0    0    0    0  0.00000000000E+00  0.00000000000E+00  0.50000499739E+01  0.50000500000E+01  0.51100000000E-03 0. -1.
         11   -1    0    0    0    0 -0.00000000000E+00 -0.00000000000E+00 -0.50000499739E+01  0.50000500000E+01  0.51100000000E-03 0.  1.
     100001    1    1    2    0    0 -0.41211440179E-02  0.69236535442E-02 -0.20858611976E-01  0.50000500000E+01  0.50000000000E+01 0.  0.
     100001    1    1    2    0    0  0.41211440179E-02 -0.69236535442E-02  0.20858611976E-01  0.50000500000E+01  0.50000000000E+01 0. -1.
</event>
<event>
 4    1  0.4919875E-001  0.5000050E+01  0.7818608E-02  0.2136455E+00
        -11   -1    0    0    0    0  0.00000000000E+00  0.00000000000E+00  0.50000499739E+01  0.50000500000E+01  0.51100000000E-03 0. -1.
         11   -1    0    0    0    0 -0.00000000000E+00 -0.00000000000E+00 -0.50000499739E+01  0.50000500000E+01  0.51100000000E-03 0.  1.
     100001    1    1    2    0    0  0.95458961925E-03  0.22325629043E-01  0.81089239684E-03  0.50000500000E+01  0.50000000000E+01 0. -1.
     100001    1    1    2    0    0 -0.95458961925E-03 -0.22325629043E-01 -0.81089239684E-03  0.50000500000E+01  0.50000000000E+01 0.  1.
</event>
<event>
 4    1  0.4919875E-001  0.5000050E+01  0.7818608E-02  0.2136455E+00
        -11   -1    0    0    0    0  0.00000000000E+00  0.00000000000E+00  0.50000499739E+01  0.50000500000E+01  0.51100000000E-03 0.  1.
         11   -1    0    0    0    0 -0.00000000000E+00 -0.00000000000E+00 -0.50000499739E+01  0.50000500000E+01  0.51100000000E-03 0. -1.
     100001    1    1    2    0    0  0.70968303191E-02  0.11011966572E-01  0.18121095211E-01  0.50000500000E+01  0.50000000000E+01 0.  1.
     100001    1    1    2    0    0 -0.70968303191E-02 -0.11011966572E-01 -0.18121095211E-01  0.50000500000E+01  0.50000000000E+01 0.  0.
</event>
<event>
 4    1  0.4919875E-001  0.5000050E+01  0.7818608E-02  0.2136455E+00
        -11   -1    0    0    0    0  0.00000000000E+00  0.00000000000E+00  0.50000499739E+01  0.50000500000E+01  0.51100000000E-03 0. -1.
         11   -1    0    0    0    0 -0.00000000000E+00 -0.00000000000E+00 -0.50000499739E+01  0.50000500000E+01  0.51100000000E-03 0.  1.
     100001    1    1    2    0    0 -0.19308312217E-01  0.11112573621E-01  0.19241327482E-02  0.50000500000E+01  0.50000000000E+01 0.  1.
     100001    1    1    2    0    0  0.19308312217E-01 -0.11112573621E-01 -0.19241327482E-02  0.50000500000E+01  0.50000000000E+01 0.  0.
</event>
<event>
 4    1  0.4919875E-001  0.5000050E+01  0.7818608E-02  0.2136455E+00
        -11   -1    0    0    0    0  0.00000000000E+00  0.00000000000E+00  0.50000499739E+01  0.50000500000E+01  0.51100000000E-03 0. -1.
         11   -1    0    0    0    0 -0.00000000000E+00 -0.00000000000E+00 -0.50000499739E+01  0.50000500000E+01  0.51100000000E-03 0.  1.
     100001    1    1    2    0    0  0.20436434392E-01  0.28853873750E-02  0.86040216776E-02  0.50000500000E+01  0.50000000000E+01 0. -1.
     100001    1    1    2    0    0 -0.20436434392E-01 -0.28853873750E-02 -0.86040216776E-02  0.50000500000E+01  0.50000000000E+01 0.  1.
</event>
<event>
 4    1  0.4919875E-001  0.5000050E+01  0.7818608E-02  0.2136455E+00
        -11   -1    0    0    0    0  0.00000000000E+00  0.00000000000E+00  0.50000499739E+01  0.50000500000E+01  0.51100000000E-03 0. -1.
         11   -1    0    0    0    0 -0.00000000000E+00 -0.00000000000E+00 -0.50000499739E+01  0.50000500000E+01  0.51100000000E-03 0.  1.
     100001    1    1    2    0    0 -0.12060743847E-01  0.51130535154E-02 -0.18121744994E-01  0.50000500000E+01  0.50000000000E+01 0.  0.
     100001    1    1    2    0    0  0.12060743847E-01 -0.51130535154E-02  0.18121744994E-01  0.50000500000E+01  0.50000000000E+01 0.  0.
</event>
<event>
 4    1  0.4919875E-001  0.5000050E+01  0.7818608E-02  0.2136455E+00
        -11   -1    0    0    0    0  0.00000000000E+00  0.00000000000E+00  0.50000499739E+01  0.50000500000E+01  0.51100000000E-03 0.  1.
         11   -1    0    0    0    0 -0.00000000000E+00 -0.00000000000E+00 -0.50000499739E+01  0.50000500000E+01  0.51100000000E-03 0. -1.
     100001    1    1    2    0    0  0.22162346271E-01 -0.26038107179E-02 -0.14328564079E-02  0.50000500000E+01  0.50000000000E+01 0.  1.
     100001    1    1    2    0    0 -0.22162346271E-01  0.26038107179E-02  0.14328564079E-02  0.50000500000E+01  0.50000000000E+01 0.  0.
</event>
<event>
 4    1  0.4919875E-001  0.5000050E+01  0.7818608E-02  0.2136455E+00
        -11   -1    0    0    0    0  0.00000000000E+00  0.00000000000E+00  0.50000499739E+01  0.50000500000E+01  0.51100000000E-03 0.  1.
         11   -1    0    0    0    0 -0.00000000000E+00 -0.00000000000E+00 -0.50000499739E+01  0.50000500000E+01  0.51100000000E-03 0. -1.
     100001    1    1    2    0    0  0.12852304322E-01 -0.10254400071E-01  0.15154802961E-01  0.50000500000E+01  0.50000000000E+01 0.  0.
     100001    1    1    2    0    0 -0.12852304322E-01  0.10254400071E-01 -0.15154802961E-01  0.50000500000E+01  0.50000000000E+01 0.  0.
</event>
<event>
 4    1  0.4919875E-001  0.5000050E+01  0.7818608E-02  0.2136455E+00
        -11   -1    0    0    0    0  0.00000000000E+00  0.00000000000E+00  0.50000499739E+01  0.50000500000E+01  0.51100000000E-03 0. -1.
         11   -1    0    0    0    0 -0.00000000000E+00 -0.00000000000E+00 -0.50000499739E+01  0.50000500000E+01  0.51100000000E-03 0.  1.
     100001    1    1    2    0    0 -0.18962933136E-01  0.96100705042E-02 -0.69322587789E-02  0.50000500000E+01  0.50000000000E+01 0.  0.
     100001    1    1    2    0    0  0.18962933136E-01 -0.96100705042E-02  0.69322587789E-02  0.50000500000E+01  0.50000000000E+01 0.  1.
</event>
<event>
 4    1  0.4919875E-001  0.5000050E+01  0.7818608E-02  0.2136455E+00
        -11   -1    0    0    0    0  0.00000000000E+00  0.00000000000E+00  0.50000499739E+01  0.50000500000E+01  0.51100000000E-03 0. -1.
         11   -1    0    0    0    0 -0.00000000000E+00 -0.00000000000E+00 -0.50000499739E+01  0.50000500000E+01  0.51100000000E-03 0.  1.
     100001    1    1    2    0    0 -0.19134795465E-01 -0.10899728605E-01 -0.38804663149E-02  0.50000500000E+01  0.50000000000E+01 0.  0.
     100001    1    1    2    0    0  0.19134795465E-01  0.10899728605E-01  0.38804663149E-02  0.50000500000E+01  0.50000000000E+01 0. -1.
</event>
<event>
 4    1  0.4919875E-001  0.5000050E+01  0.7818608E-02  0.2136455E+00
        -11   -1    0    0    0    0  0.00000000000E+00  0.00000000000E+00  0.50000499739E+01  0.50000500000E+01  0.51100000000E-03 0.  1.
         11   -1    0    0    0    0 -0.00000000000E+00 -0.00000000000E+00 -0.50000499739E+01  0.50000500000E+01  0.51100000000E-03 0. -1.
     100001    1    1    2    0    0 -0.11339823697E-01  0.19256158383E-01 -0.78183301375E-03  0.50000500000E+01  0.50000000000E+01 0. -1.
     100001    1    1    2    0    0  0.11339823697E-01 -0.19256158383E-01  0.78183301375E-03  0.50000500000E+01  0.50000000000E+01 0.  1.
</event>
<event>
 4    1  0.4919875E-001  0.5000050E+01  0.7818608E-02  0.2136455E+00
        -11   -1    0    0    0    0  0.00000000000E+00  0.00000000000E+00  0.50000499739E+01  0.50000500000E+01  0.51100000000E-03 0.  1.
         11   -1    0    0    0    0 -0.00000000000E+00 -0.00000000000E+00 -0.50000499739E+01  0.50000500000E+01  0.51100000000E-03 0. -1.
     100001    1    1    2    0    0  0.87096247547E-02  0.37826956891E-02 -0.20244410338E-01  0.50000500000E+01  0.50000000000E+01 0. -1.
     100001    1    1    2    0    0 -0.87096247547E-02 -0.37826956891E-02  0.20244410338E-01  0.50000500000E+01  0.50000000000E+01 0.  0.
</event>
<event>
 4    1  0.4919875E-001  0.5000050E+01  0.7818608E-02  0.2136455E+00
        -11   -1    0    0    0    0  0.00000000000E+00  0.00000000000E+00  0.50000499739E+01  0.50000500000E+01  0.51100000000E-03 0. -1.
         11   -1    0    0    0    0 -0.00000000000E+00 -0.00000000000E+00 -0.50000499739E+01  0.50000500000E+01  0.51100000000E-03 0.  1.
     100001    1    1    2    0    0 -0.11320703428E-01 -0.15579073499E-01 -0.11363830465E-01  0.50000500000E+01  0.50000000000E+01 0.  1.
     100001    1    1    2    0    0  0.11320703428E-01  0.15579073499E-01  0.11363830465E-01  0.50000500000E+01  0.50000000000E+01 0. -1.
</event>
<event>
 4    1  0.4919875E-001  0.5000050E+01  0.7818608E-02  0.2136455E+00
        -11   -1    0    0    0    0  0.00000000000E+00  0.00000000000E+00  0.50000499739E+01  0.50000500000E+01  0.51100000000E-03 0. -1.
         11   -1    0    0    0    0 -0.00000000000E+00 -0.00000000000E+00 -0.50000499739E+01  0.50000500000E+01  0.51100000000E-03 0.  1.
     100001    1    1    2    0    0  0.10393363104E-01 -0.72640434969E-02  0.18417767928E-01  0.50000500000E+01  0.50000000000E+01 0. -1.
     100001    1    1    2    0    0 -0.10393363104E-01  0.72640434969E-02 -0.18417767928E-01  0.50000500000E+01  0.50000000000E+01 0.  1.
</event>
<event>
 4    1  0.4919875E-001  0.5000050E+01  0.7818608E-02  0.2136455E+00
        -11   -1    0    0    0    0  0.00000000000E+00  0.00000000000E+00  0.50000499739E+01  0.50000500000E+01  0.51100000000E-03 0.  1.
         11   -1    0    0    0    0 -0.00000000000E+00 -0.00000000000E+00 -0.50000499739E+01  0.50000500000E+01  0.51100000000E-03 0. -1.
     100001    1    1    2    0    0  0.17267735572E-02  0.21911555236E-01 -0.41115082668E-02  0.50000500000E+01  0.50000000000E+01 0.  0.
     100001    1    1    2    0    0 -0.17267735572E-02 -0.21911555236E-01  0.41115082668E-02  0.50000500000E+01  0.50000000000E+01 0.  0.
</event>
<event>
 4    1  0.4919875E-001  0.5000050E+01  0.7818608E-02  0.2136455E+00
        -11   -1    0    0    0    0  0.00000000000E+00  0.00000000000E+00  0.50000499739E+01  0.50000500000E+01  0.51100000000E-03 0.  1.
         11   -1    0    0    0    0 -0.00000000000E+00 -0.00000000000E+00 -0.50000499739E+01  0.50000500000E+01  0.51100000000E-03 0. -1.
     100001    1    1    2    0    0 -0.88485183653E-02  0.62583951340E-02 -0.19558596910E-01  0.50000500000E+01  0.50000000000E+01 0. -1.
     100001    1    1    2    0    0  0.88485183653E-02 -0.62583951340E-02  0.19558596910E-01  0.50000500000E+01  0.50000000000E+01 0.  0.
</event>
<event>
 4    1  0.4919875E-001  0.5000050E+01  0.7818608E-02  0.2136455E+00
        -11   -1    0    0    0    0  0.00000000000E+00  0.00000000000E+00  0.50000499739E+01  0.50000500000E+01  0.51100000000E-03 0.  1.
         11   -1    0    0    0    0 -0.00000000000E+00 -0.00000000000E+00 -0.50000499739E+01  0.50000500000E+01  0.51100000000E-03 0. -1.
     100001    1    1    2    0    0 -0.17836431578E-01  0.10924345832E-01  0.79071408689E-02  0.50000500000E+01  0.50000000000E+01 0.  1.
     100001    1    1    2    0    0  0.17836431578E-01 -0.10924345832E-01 -0.79071408689E-02  0.50000500000E+01  0.50000000000E+01 0. -1.
</event>
<event>
 4    1  0.4919875E-001  0.5000050E+01  0.7818608E-02  0.2136455E+00
        -11   -1    0    0    0    0  0.00000000000E+00  0.00000000000E+00  0.50000499739E+01  0.50000500000E+01  0.51100000000E-03 0. -1.
         11   -1    0    0    0    0 -0.00000000000E+00 -0.00000000000E+00 -0.50000499739E+01  0.50000500000E+01  0.51100000000E-03 0.  1.
     100001    1    1    2    0    0  0.46241471120E-02  0.89151946218E-02  0.19978465115E-01  0.50000500000E+01  0.50000000000E+01 0.  0.
     100001    1    1    2    0    0 -0.46241471120E-02 -0.89151946218E-02 -0.19978465115E-01  0.50000500000E+01  0.50000000000E+01 0.  1.
</event>
<event>
 4    1  0.4919875E-001  0.5000050E+01  0.7818608E-02  0.2136455E+00
        -11   -1    0    0    0    0  0.00000000000E+00  0.00000000000E+00  0.50000499739E+01  0.50000500000E+01  0.51100000000E-03 0.  1.
         11   -1    0    0    0    0 -0.00000000000E+00 -0.00000000000E+00 -0.50000499739E+01  0.50000500000E+01  0.51100000000E-03 0. -1.
     100001    1    1    2    0    0 -0.21470711833E-01 -0.25806064519E-02  0.56878382309E-02  0.50000500000E+01  0.50000000000E+01 0.  1.
     100001    1    1    2    0    0  0.21470711833E-01  0.25806064519E-02 -0.56878382309E-02  0.50000500000E+01  0.50000000000E+01 0. -1.
</event>
<event>
 4    1  0.4919875E-001  0.5000050E+01  0.7818608E-02  0.2136455E+00
        -11   -1    0    0    0    0  0.00000000000E+00  0.00000000000E+00  0.50000499739E+01  0.50000500000E+01  0.51100000000E-03 0. -1.
         11   -1    0    0    0    0 -0.00000000000E+00 -0.00000000000E+00 -0.50000499739E+01  0.50000500000E+01  0.51100000000E-03 0.  1.
     100001    1    1    2    0    0 -0.17226832309E-01  0.34700796886E-02  0.13827411022E-01  0.50000500000E+01  0.50000000000E+01 0.  0.
     100001    1    1    2    0    0  0.17226832309E-01 -0.34700796886E-02 -0.13827411022E-01  0.50000500000E+01  0.50000000000E+01 0. -1.
</event>
<event>
 4    1  0.4919875E-001  0.5000050E+01  0.7818608E-02  0.2136455E+00
        -11   -1    0    0    0    0  0.00000000000E+00  0.00000000000E+00  0.50000499739E+01  0.50000500000E+01  0.51100000000E-03 0. -1.
         11   -1    0    0    0    0 -0.00000000000E+00 -0.00000000000E+00 -0.50000499739E+01  0.50000500000E+01  0.51100000000E-03 0.  1.
     100001    1    1    2    0    0  0.16915541799E-01 -0.18754349744E-02 -0.14503437154E-01  0.50000500000E+01  0.50000000000E+01 0.  1.
     100001    1    1    2    0    0 -0.16915541799E-01  0.18754349744E-02  0.14503437154E-01  0.50000500000E+01  0.50000000000E+01 0. -1.
</event>
<event>
 4    1  0.4919875E-001  0.5000050E+01  0.7818608E-02  0.2136455E+00
        -11   -1    0    0    0    0  0.00000000000E+00  0.00000000000E+00  0.50000499739E+01  0.50000500000E+01  0.51100000000E-03 0.  1.
         11   -1    0    0    0    0 -0.00000000000E+00 -0.00000000000E+00 -0.50000499739E+01  0.50000500000E+01  0.51100000000E-03 0. -1.
     100001    1    1    2    0    0 -0.10562110867E-01  0.18581472569E-01  0.65706309585E-02  0.50000500000E+01  0.50000000000E+01 0.  1.
     100001    1    1    2    0    0  0.10562110867E-01 -0.18581472569E-01 -0.65706309585E-02  0.50000500000E+01  0.50000000000E+01 0. -1.
</event>
<event>
 4    1  0.4919875E-001  0.5000050E+01  0.7818608E-02  0.2136455E+00
        -11   -1    0    0    0    0  0.00000000000E+00  0.00000000000E+00  0.50000499739E+01  0.50000500000E+01  0.51100000000E-03 0. -1.
         11   -1    0    0    0    0 -0.00000000000E+00 -0.00000000000E+00 -0.50000499739E+01  0.50000500000E+01  0.51100000000E-03 0.  1.
     100001    1    1    2    0    0  0.13896221627E-01  0.11989035267E-01  0.12773431718E-01  0.50000500000E+01  0.50000000000E+01 0.  0.
     100001    1    1    2    0    0 -0.13896221627E-01 -0.11989035267E-01 -0.12773431718E-01  0.50000500000E+01  0.50000000000E+01 0.  0.
</event>
<event>
 4    1  0.4919875E-001  0.5000050E+01  0.7818608E-02  0.2136455E+00
        -11   -1    0    0    0    0  0.00000000000E+00  0.00000000000E+00  0.50000499739E+01  0.50000500000E+01  0.51100000000E-03 0.  1.
         11   -1    0    0    0    0 -0.00000000000E+00 -0.00000000000E+00 -0.50000499739E+01  0.50000500000E+01  0.51100000000E-03 0. -1.
     100001    1    1    2    0    0  0.62751499838E-02 -0.65048852114E-02  0.20452663911E-01  0.50000500000E+01  0.50000000000E+01 0.  0.
     100001    1    1    2    0    0 -0.62751499838E-02  0.65048852114E-02 -0.20452663911E-01  0.50000500000E+01  0.50000000000E+01 0. -1.
</event>
<event>
 4    1  0.4919875E-001  0.5000050E+01  0.7818608E-02  0.2136455E+00
        -11   -1    0    0    0    0  0.00000000000E+00  0.00000000000E+00  0.50000499739E+01  0.50000500000E+01  0.51100000000E-03 0. -1.
         11   -1    0    0    0    0 -0.00000000000E+00 -0.00000000000E+00 -0.50000499739E+01  0.50000500000E+01  0.51100000000E-03 0.  1.
     100001    1    1    2    0    0  0.56273874800E-03  0.19188206017E-01  0.11467282806E-01  0.50000500000E+01  0.50000000000E+01 0.  0.
     100001    1    1    2    0    0 -0.56273874800E-03 -0.19188206017E-01 -0.11467282806E-01  0.50000500000E+01  0.50000000000E+01 0.  0.
</event>
<event>
 4    1  0.4919875E-001  0.5000050E+01  0.7818608E-02  0.2136455E+00
        -11   -1    0    0    0    0  0.00000000000E+00  0.00000000000E+00  0.50000499739E+01  0.50000500000E+01  0.51100000000E-03 0.  1.
         11   -1    0    0    0    0 -0.00000000000E+00 -0.00000000000E+00 -0.50000499739E+01  0.50000500000E+01  0.51100000000E-03 0. -1.
     100001    1    1    2    0    0 -0.21619487177E-01  0.89849994484E-03  0.56385256990E-02  0.50000500000E+01  0.50000000000E+01 0.  1.
     100001    1    1    2    0    0  0.21619487177E-01 -0.89849994484E-03 -0.56385256990E-02  0.50000500000E+01  0.50000000000E+01 0. -1.
</event>
<event>
 4    1  0.4919875E-001  0.5000050E+01  0.7818608E-02  0.2136455E+00
        -11   -1    0    0    0    0  0.00000000000E+00  0.00000000000E+00  0.50000499739E+01  0.50000500000E+01  0.51100000000E-03 0. -1.
         11   -1    0    0    0    0 -0.00000000000E+00 -0.00000000000E+00 -0.50000499739E+01  0.50000500000E+01  0.51100000000E-03 0.  1.
     100001    1    1    2    0    0 -0.15091177412E-01 -0.11424771457E-01 -0.11905186326E-01  0.50000500000E+01  0.50000000000E+01 0.  1.
     100001    1    1    2    0    0  0.15091177412E-01  0.11424771457E-01  0.11905186326E-01  0.50000500000E+01  0.50000000000E+01 0. -1.
</event>
<event>
 4    1  0.4919875E-001  0.5000050E+01  0.7818608E-02  0.2136455E+00
        -11   -1    0    0    0    0  0.00000000000E+00  0.00000000000E+00  0.50000499739E+01  0.50000500000E+01  0.51100000000E-03 0.  1.
         11   -1    0    0    0    0 -0.00000000000E+00 -0.00000000000E+00 -0.50000499739E+01  0.50000500000E+01  0.51100000000E-03 0. -1.
     100001    1    1    2    0    0  0.18284980032E-01 -0.12847613567E-03  0.12870334072E-01  0.50000500000E+01  0.50000000000E+01 0.  0.
     100001    1    1    2    0    0 -0.18284980032E-01  0.12847613567E-03 -0.12870334072E-01  0.50000500000E+01  0.50000000000E+01 0.  0.
</event>
<event>
 4    1  0.4919875E-001  0.5000050E+01  0.7818608E-02  0.2136455E+00
        -11   -1    0    0    0    0  0.00000000000E+00  0.00000000000E+00  0.50000499739E+01  0.50000500000E+01  0.51100000000E-03 0.  1.
         11   -1    0    0    0    0 -0.00000000000E+00 -0.00000000000E+00 -0.50000499739E+01  0.50000500000E+01  0.51100000000E-03 0. -1.
     100001    1    1    2    0    0  0.15181653389E-01  0.16236493782E-01  0.24282030469E-02  0.50000500000E+01  0.50000000000E+01 0. -1.
     100001    1    1    2    0    0 -0.15181653389E-01 -0.16236493782E-01 -0.24282030469E-02  0.50000500000E+01  0.50000000000E+01 0.  1.
</event>
<event>
 4    1  0.4919875E-001  0.5000050E+01  0.7818608E-02  0.2136455E+00
        -11   -1    0    0    0    0  0.00000000000E+00  0.00000000000E+00  0.50000499739E+01  0.50000500000E+01  0.51100000000E-03 0. -1.
         11   -1    0    0    0    0 -0.00000000000E+00 -0.00000000000E+00 -0.50000499739E+01  0.50000500000E+01  0.51100000000E-03 0.  1.
     100001    1    1    2    0    0 -0.58734911786E-02  0.17718709553E-02  0.21502675989E-01  0.50000500000E+01  0.50000000000E+01 0.  0.
     100001    1    1    2    0    0  0.58734911786E-02 -0.17718709553E-02 -0.21502675989E-01  0.50000500000E+01  0.50000000000E+01 0.  1.
</event>
<event>
 4    1  0.4919875E-001  0.5000050E+01  0.7818608E-02  0.2136455E+00
        -11   -1    0    0    0    0  0.00000000000E+00  0.00000000000E+00  0.50000499739E+01  0.50000500000E+01  0.51100000000E-03 0. -1.
         11   -1    0    0    0    0 -0.00000000000E+00 -0.00000000000E+00 -0.50000499739E+01  0.50000500000E+01  0.51100000000E-03 0.  1.
     100001    1    1    2    0    0 -0.15143497200E-01  0.75193861002E-02  0.14633380513E-01  0.50000500000E+01  0.50000000000E+01 0.  0.
     100001    1    1    2    0    0  0.15143497200E-01 -0.75193861002E-02 -0.14633380513E-01  0.50000500000E+01  0.50000000000E+01 0.  0.
</event>
<event>
 4    1  0.4919875E-001  0.5000050E+01  0.7818608E-02  0.2136455E+00
        -11   -1    0    0    0    0  0.00000000000E+00  0.00000000000E+00  0.50000499739E+01  0.50000500000E+01  0.51100000000E-03 0. -1.
         11   -1    0    0    0    0 -0.00000000000E+00 -0.00000000000E+00 -0.50000499739E+01  0.50000500000E+01  0.51100000000E-03 0.  1.
     100001    1    1    2    0    0 -0.11552167593E-01  0.65729254456E-02 -0.17981840145E-01  0.50000500000E+01  0.50000000000E+01 0. -1.
     100001    1    1    2    0    0  0.11552167593E-01 -0.65729254456E-02  0.17981840145E-01  0.50000500000E+01  0.50000000000E+01 0. -1.
</event>
<event>
 4    1  0.4919875E-001  0.5000050E+01  0.7818608E-02  0.2136455E+00
        -11   -1    0    0    0    0  0.00000000000E+00  0.00000000000E+00  0.50000499739E+01  0.50000500000E+01  0.51100000000E-03 0. -1.
         11   -1    0    0    0    0 -0.00000000000E+00 -0.00000000000E+00 -0.50000499739E+01  0.50000500000E+01  0.51100000000E-03 0.  1.
     100001    1    1    2    0    0  0.21336753257E-01 -0.26967878974E-02  0.61215027145E-02  0.50000500000E+01  0.50000000000E+01 0.  1.
     100001    1    1    2    0    0 -0.21336753257E-01  0.26967878974E-02 -0.61215027145E-02  0.50000500000E+01  0.50000000000E+01 0. -1.
</event>
<event>
 4    1  0.4919875E-001  0.5000050E+01  0.7818608E-02  0.2136455E+00
        -11   -1    0    0    0    0  0.00000000000E+00  0.00000000000E+00  0.50000499739E+01  0.50000500000E+01  0.51100000000E-03 0. -1.
         11   -1    0    0    0    0 -0.00000000000E+00 -0.00000000000E+00 -0.50000499739E+01  0.50000500000E+01  0.51100000000E-03 0.  1.
     100001    1    1    2    0    0  0.19100850892E-01  0.66326880422E-02 -0.95481644584E-02  0.50000500000E+01  0.50000000000E+01 0.  1.
     100001    1    1    2    0    0 -0.19100850892E-01 -0.66326880422E-02  0.95481644584E-02  0.50000500000E+01  0.50000000000E+01 0. -1.
</event>
<event>
 4    1  0.4919875E-001  0.5000050E+01  0.7818608E-02  0.2136455E+00
        -11   -1    0    0    0    0  0.00000000000E+00  0.00000000000E+00  0.50000499739E+01  0.50000500000E+01  0.51100000000E-03 0.  1.
         11   -1    0    0    0    0 -0.00000000000E+00 -0.00000000000E+00 -0.50000499739E+01  0.50000500000E+01  0.51100000000E-03 0. -1.
     100001    1    1    2    0    0 -0.20157800819E-01 -0.91003443074E-02  0.32938275043E-02  0.50000500000E+01  0.50000000000E+01 0.  1.
     100001    1    1    2    0    0  0.20157800819E-01  0.91003443074E-02 -0.32938275043E-02  0.50000500000E+01  0.50000000000E+01 0. -1.
</event>
<event>
 4    1  0.4919875E-001  0.5000050E+01  0.7818608E-02  0.2136455E+00
        -11   -1    0    0    0    0  0.00000000000E+00  0.00000000000E+00  0.50000499739E+01  0.50000500000E+01  0.51100000000E-03 0. -1.
         11   -1    0    0    0    0 -0.00000000000E+00 -0.00000000000E+00 -0.50000499739E+01  0.50000500000E+01  0.51100000000E-03 0.  1.
     100001    1    1    2    0    0 -0.33259552511E-02 -0.10845780617E-01 -0.19269394502E-01  0.50000500000E+01  0.50000000000E+01 0.  0.
     100001    1    1    2    0    0  0.33259552511E-02  0.10845780617E-01  0.19269394502E-01  0.50000500000E+01  0.50000000000E+01 0. -1.
</event>
<event>
 4    1  0.4919875E-001  0.5000050E+01  0.7818608E-02  0.2136455E+00
        -11   -1    0    0    0    0  0.00000000000E+00  0.00000000000E+00  0.50000499739E+01  0.50000500000E+01  0.51100000000E-03 0.  1.
         11   -1    0    0    0    0 -0.00000000000E+00 -0.00000000000E+00 -0.50000499739E+01  0.50000500000E+01  0.51100000000E-03 0. -1.
     100001    1    1    2    0    0  0.20032164149E-01  0.28775759667E-02  0.95097032581E-02  0.50000500000E+01  0.50000000000E+01 0.  1.
     100001    1    1    2    0    0 -0.20032164149E-01 -0.28775759667E-02 -0.95097032581E-02  0.50000500000E+01  0.50000000000E+01 0. -1.
</event>
<event>
 4    1  0.4919875E-001  0.5000050E+01  0.7818608E-02  0.2136455E+00
        -11   -1    0    0    0    0  0.00000000000E+00  0.00000000000E+00  0.50000499739E+01  0.50000500000E+01  0.51100000000E-03 0.  1.
         11   -1    0    0    0    0 -0.00000000000E+00 -0.00000000000E+00 -0.50000499739E+01  0.50000500000E+01  0.51100000000E-03 0. -1.
     100001    1    1    2    0    0  0.18076702771E-02  0.16038450814E-01  0.15475881999E-01  0.50000500000E+01  0.50000000000E+01 0.  1.
     100001    1    1    2    0    0 -0.18076702771E-02 -0.16038450814E-01 -0.15475881999E-01  0.50000500000E+01  0.50000000000E+01 0. -1.
</event>
<event>
 4    1  0.4919875E-001  0.5000050E+01  0.7818608E-02  0.2136455E+00
        -11   -1    0    0    0    0  0.00000000000E+00  0.00000000000E+00  0.50000499739E+01  0.50000500000E+01  0.51100000000E-03 0.  1.
         11   -1    0    0    0    0 -0.00000000000E+00 -0.00000000000E+00 -0.50000499739E+01  0.50000500000E+01  0.51100000000E-03 0. -1.
     100001    1    1    2    0    0  0.23204020526E-02 -0.21948054836E-01  0.35918133604E-02  0.50000500000E+01  0.50000000000E+01 0. -1.
     100001    1    1    2    0    0 -0.23204020526E-02  0.21948054836E-01 -0.35918133604E-02  0.50000500000E+01  0.50000000000E+01 0.  1.
</event>
<event>
 4    1  0.4919875E-001  0.5000050E+01  0.7818608E-02  0.2136455E+00
        -11   -1    0    0    0    0  0.00000000000E+00  0.00000000000E+00  0.50000499739E+01  0.50000500000E+01  0.51100000000E-03 0.  1.
         11   -1    0    0    0    0 -0.00000000000E+00 -0.00000000000E+00 -0.50000499739E+01  0.50000500000E+01  0.51100000000E-03 0. -1.
     100001    1    1    2    0    0 -0.28877701317E-02 -0.13112540127E-01 -0.17880843803E-01  0.50000500000E+01  0.50000000000E+01 0. -1.
     100001    1    1    2    0    0  0.28877701317E-02  0.13112540127E-01  0.17880843803E-01  0.50000500000E+01  0.50000000000E+01 0.  1.
</event>
<event>
 4    1  0.4919875E-001  0.5000050E+01  0.7818608E-02  0.2136455E+00
        -11   -1    0    0    0    0  0.00000000000E+00  0.00000000000E+00  0.50000499739E+01  0.50000500000E+01  0.51100000000E-03 0.  1.
         11   -1    0    0    0    0 -0.00000000000E+00 -0.00000000000E+00 -0.50000499739E+01  0.50000500000E+01  0.51100000000E-03 0. -1.
     100001    1    1    2    0    0 -0.22047233870E-01 -0.27477548362E-02  0.25242468251E-02  0.50000500000E+01  0.50000000000E+01 0.  1.
     100001    1    1    2    0    0  0.22047233870E-01  0.27477548362E-02 -0.25242468251E-02  0.50000500000E+01  0.50000000000E+01 0. -1.
</event>
<event>
 4    1  0.4919875E-001  0.5000050E+01  0.7818608E-02  0.2136455E+00
        -11   -1    0    0    0    0  0.00000000000E+00  0.00000000000E+00  0.50000499739E+01  0.50000500000E+01  0.51100000000E-03 0.  1.
         11   -1    0    0    0    0 -0.00000000000E+00 -0.00000000000E+00 -0.50000499739E+01  0.50000500000E+01  0.51100000000E-03 0. -1.
     100001    1    1    2    0    0  0.11614074014E-01 -0.55308778484E-02  0.18290029388E-01  0.50000500000E+01  0.50000000000E+01 0. -1.
     100001    1    1    2    0    0 -0.11614074014E-01  0.55308778484E-02 -0.18290029388E-01  0.50000500000E+01  0.50000000000E+01 0.  1.
</event>
<event>
 4    1  0.4919875E-001  0.5000050E+01  0.7818608E-02  0.2136455E+00
        -11   -1    0    0    0    0  0.00000000000E+00  0.00000000000E+00  0.50000499739E+01  0.50000500000E+01  0.51100000000E-03 0. -1.
         11   -1    0    0    0    0 -0.00000000000E+00 -0.00000000000E+00 -0.50000499739E+01  0.50000500000E+01  0.51100000000E-03 0.  1.
     100001    1    1    2    0    0 -0.51019336081E-02  0.99012026287E-02  0.19389145416E-01  0.50000500000E+01  0.50000000000E+01 0. -1.
     100001    1    1    2    0    0  0.51019336081E-02 -0.99012026287E-02 -0.19389145416E-01  0.50000500000E+01  0.50000000000E+01 0.  1.
</event>
<event>
 4    1  0.4919875E-001  0.5000050E+01  0.7818608E-02  0.2136455E+00
        -11   -1    0    0    0    0  0.00000000000E+00  0.00000000000E+00  0.50000499739E+01  0.50000500000E+01  0.51100000000E-03 0.  1.
         11   -1    0    0    0    0 -0.00000000000E+00 -0.00000000000E+00 -0.50000499739E+01  0.50000500000E+01  0.51100000000E-03 0. -1.
     100001    1    1    2    0    0 -0.18918016852E-01 -0.12525663125E-03  0.11920379572E-01  0.50000500000E+01  0.50000000000E+01 0. -1.
     100001    1    1    2    0    0  0.18918016852E-01  0.12525663125E-03 -0.11920379572E-01  0.50000500000E+01  0.50000000000E+01 0.  0.
</event>
<event>
 4    1  0.4919875E-001  0.5000050E+01  0.7818608E-02  0.2136455E+00
        -11   -1    0    0    0    0  0.00000000000E+00  0.00000000000E+00  0.50000499739E+01  0.50000500000E+01  0.51100000000E-03 0. -1.
         11   -1    0    0    0    0 -0.00000000000E+00 -0.00000000000E+00 -0.50000499739E+01  0.50000500000E+01  0.51100000000E-03 0.  1.
     100001    1    1    2    0    0  0.20492984674E-01 -0.64663090179E-02 -0.61827928014E-02  0.50000500000E+01  0.50000000000E+01 0.  0.
     100001    1    1    2    0    0 -0.20492984674E-01  0.64663090179E-02  0.61827928014E-02  0.50000500000E+01  0.50000000000E+01 0.  1.
</event>
<event>
 4    1  0.4919875E-001  0.5000050E+01  0.7818608E-02  0.2136455E+00
        -11   -1    0    0    0    0  0.00000000000E+00  0.00000000000E+00  0.50000499739E+01  0.50000500000E+01  0.51100000000E-03 0. -1.
         11   -1    0    0    0    0 -0.00000000000E+00 -0.00000000000E+00 -0.50000499739E+01  0.50000500000E+01  0.51100000000E-03 0.  1.
     100001    1    1    2    0    0 -0.73257123646E-02  0.17725845501E-01  0.11494817947E-01  0.50000500000E+01  0.50000000000E+01 0.  0.
     100001    1    1    2    0    0  0.73257123646E-02 -0.17725845501E-01 -0.11494817947E-01  0.50000500000E+01  0.50000000000E+01 0. -1.
</event>
<event>
 4    1  0.4919875E-001  0.5000050E+01  0.7818608E-02  0.2136455E+00
        -11   -1    0    0    0    0  0.00000000000E+00  0.00000000000E+00  0.50000499739E+01  0.50000500000E+01  0.51100000000E-03 0.  1.
         11   -1    0    0    0    0 -0.00000000000E+00 -0.00000000000E+00 -0.50000499739E+01  0.50000500000E+01  0.51100000000E-03 0. -1.
     100001    1    1    2    0    0  0.19903702619E-01  0.88475369303E-02  0.50563042135E-02  0.50000500000E+01  0.50000000000E+01 0.  0.
     100001    1    1    2    0    0 -0.19903702619E-01 -0.88475369303E-02 -0.50563042135E-02  0.50000500000E+01  0.50000000000E+01 0.  1.
</event>
<event>
 4    1  0.4919875E-001  0.5000050E+01  0.7818608E-02  0.2136455E+00
        -11   -1    0    0    0    0  0.00000000000E+00  0.00000000000E+00  0.50000499739E+01  0.50000500000E+01  0.51100000000E-03 0.  1.
         11   -1    0    0    0    0 -0.00000000000E+00 -0.00000000000E+00 -0.50000499739E+01  0.50000500000E+01  0.51100000000E-03 0. -1.
     100001    1    1    2    0    0 -0.19523852986E-01  0.47954463176E-02  0.97890428119E-02  0.50000500000E+01  0.50000000000E+01 0.  0.
     100001    1    1    2    0    0  0.19523852986E-01 -0.47954463176E-02 -0.97890428119E-02  0.50000500000E+01  0.50000000000E+01 0.  0.
</event>
<event>
 4    1  0.4919875E-001  0.5000050E+01  0.7818608E-02  0.2136455E+00
        -11   -1    0    0    0    0  0.00000000000E+00  0.00000000000E+00  0.50000499739E+01  0.50000500000E+01  0.51100000000E-03 0.  1.
         11   -1    0    0    0    0 -0.00000000000E+00 -0.00000000000E+00 -0.50000499739E+01  0.50000500000E+01  0.51100000000E-03 0. -1.
     100001    1    1    2    0    0  0.67150744692E-02  0.29983158730E-02 -0.21116826864E-01  0.50000500000E+01  0.50000000000E+01 0. -1.
     100001    1    1    2    0    0 -0.67150744692E-02 -0.29983158730E-02  0.21116826864E-01  0.50000500000E+01  0.50000000000E+01 0.  0.
</event>
<event>
 4    1  0.4919875E-001  0.5000050E+01  0.7818608E-02  0.2136455E+00
        -11   -1    0    0    0    0  0.00000000000E+00  0.00000000000E+00  0.50000499739E+01  0.50000500000E+01  0.51100000000E-03 0.  1.
         11   -1    0    0    0    0 -0.00000000000E+00 -0.00000000000E+00 -0.50000499739E+01  0.50000500000E+01  0.51100000000E-03 0. -1.
     100001    1    1    2    0    0 -0.14463437294E-01 -0.15819461972E-01  0.63683674971E-02  0.50000500000E+01  0.50000000000E+01 0. -1.
     100001    1    1    2    0    0  0.14463437294E-01  0.15819461972E-01 -0.63683674971E-02  0.50000500000E+01  0.50000000000E+01 0.  0.
</event>
<event>
 4    1  0.4919875E-001  0.5000050E+01  0.7818608E-02  0.2136455E+00
        -11   -1    0    0    0    0  0.00000000000E+00  0.00000000000E+00  0.50000499739E+01  0.50000500000E+01  0.51100000000E-03 0. -1.
         11   -1    0    0    0    0 -0.00000000000E+00 -0.00000000000E+00 -0.50000499739E+01  0.50000500000E+01  0.51100000000E-03 0.  1.
     100001    1    1    2    0    0  0.26791986138E-02  0.21654262007E-01 -0.48905349101E-02  0.50000500000E+01  0.50000000000E+01 0.  1.
     100001    1    1    2    0    0 -0.26791986138E-02 -0.21654262007E-01  0.48905349101E-02  0.50000500000E+01  0.50000000000E+01 0.  0.
</event>
<event>
 4    1  0.4919875E-001  0.5000050E+01  0.7818608E-02  0.2136455E+00
        -11   -1    0    0    0    0  0.00000000000E+00  0.00000000000E+00  0.50000499739E+01  0.50000500000E+01  0.51100000000E-03 0. -1.
         11   -1    0    0    0    0 -0.00000000000E+00 -0.00000000000E+00 -0.50000499739E+01  0.50000500000E+01  0.51100000000E-03 0.  1.
     100001    1    1    2    0    0  0.21894919005E-01 -0.23335363645E-02  0.38948208962E-02  0.50000500000E+01  0.50000000000E+01 0.  0.
     100001    1    1    2    0    0 -0.21894919005E-01  0.23335363645E-02 -0.38948208962E-02  0.50000500000E+01  0.50000000000E+01 0. -1.
</event>
<event>
 4    1  0.4919875E-001  0.5000050E+01  0.7818608E-02  0.2136455E+00
        -11   -1    0    0    0    0  0.00000000000E+00  0.00000000000E+00  0.50000499739E+01  0.50000500000E+01  0.51100000000E-03 0.  1.
         11   -1    0    0    0    0 -0.00000000000E+00 -0.00000000000E+00 -0.50000499739E+01  0.50000500000E+01  0.51100000000E-03 0. -1.
     100001    1    1    2    0    0 -0.52568857016E-02  0.12107411990E-01  0.18049327622E-01  0.50000500000E+01  0.50000000000E+01 0. -1.
     100001    1    1    2    0    0  0.52568857016E-02 -0.12107411990E-01 -0.18049327622E-01  0.50000500000E+01  0.50000000000E+01 0.  0.
</event>
<event>
 4    1  0.4919875E-001  0.5000050E+01  0.7818608E-02  0.2136455E+00
        -11   -1    0    0    0    0  0.00000000000E+00  0.00000000000E+00  0.50000499739E+01  0.50000500000E+01  0.51100000000E-03 0.  1.
         11   -1    0    0    0    0 -0.00000000000E+00 -0.00000000000E+00 -0.50000499739E+01  0.50000500000E+01  0.51100000000E-03 0. -1.
     100001    1    1    2    0    0 -0.11505164561E-01  0.14206265319E-01  0.12876945060E-01  0.50000500000E+01  0.50000000000E+01 0.  1.
     100001    1    1    2    0    0  0.11505164561E-01 -0.14206265319E-01 -0.12876945060E-01  0.50000500000E+01  0.50000000000E+01 0. -1.
</event>
<event>
 4    1  0.4919875E-001  0.5000050E+01  0.7818608E-02  0.2136455E+00
        -11   -1    0    0    0    0  0.00000000000E+00  0.00000000000E+00  0.50000499739E+01  0.50000500000E+01  0.51100000000E-03 0.  1.
         11   -1    0    0    0    0 -0.00000000000E+00 -0.00000000000E+00 -0.50000499739E+01  0.50000500000E+01  0.51100000000E-03 0. -1.
     100001    1    1    2    0    0  0.10573927149E-01  0.19666486809E-01  0.11932565700E-02  0.50000500000E+01  0.50000000000E+01 0.  1.
     100001    1    1    2    0    0 -0.10573927149E-01 -0.19666486809E-01 -0.11932565700E-02  0.50000500000E+01  0.50000000000E+01 0. -1.
</event>
<event>
 4    1  0.4919875E-001  0.5000050E+01  0.7818608E-02  0.2136455E+00
        -11   -1    0    0    0    0  0.00000000000E+00  0.00000000000E+00  0.50000499739E+01  0.50000500000E+01  0.51100000000E-03 0.  1.
         11   -1    0    0    0    0 -0.00000000000E+00 -0.00000000000E+00 -0.50000499739E+01  0.50000500000E+01  0.51100000000E-03 0. -1.
     100001    1    1    2    0    0 -0.59162211802E-02  0.44942672779E-02 -0.21090338750E-01  0.50000500000E+01  0.50000000000E+01 0.  0.
     100001    1    1    2    0    0  0.59162211802E-02 -0.44942672779E-02  0.21090338750E-01  0.50000500000E+01  0.50000000000E+01 0.  1.
</event>
<event>
 4    1  0.4919875E-001  0.5000050E+01  0.7818608E-02  0.2136455E+00
        -11   -1    0    0    0    0  0.00000000000E+00  0.00000000000E+00  0.50000499739E+01  0.50000500000E+01  0.51100000000E-03 0.  1.
         11   -1    0    0    0    0 -0.00000000000E+00 -0.00000000000E+00 -0.50000499739E+01  0.50000500000E+01  0.51100000000E-03 0. -1.
     100001    1    1    2    0    0 -0.11774186628E-01 -0.18984050153E-01  0.98836684453E-03  0.50000500000E+01  0.50000000000E+01 0. -1.
     100001    1    1    2    0    0  0.11774186628E-01  0.18984050153E-01 -0.98836684453E-03  0.50000500000E+01  0.50000000000E+01 0.  1.
</event>
<event>
 4    1  0.4919875E-001  0.5000050E+01  0.7818608E-02  0.2136455E+00
        -11   -1    0    0    0    0  0.00000000000E+00  0.00000000000E+00  0.50000499739E+01  0.50000500000E+01  0.51100000000E-03 0.  1.
         11   -1    0    0    0    0 -0.00000000000E+00 -0.00000000000E+00 -0.50000499739E+01  0.50000500000E+01  0.51100000000E-03 0. -1.
     100001    1    1    2    0    0  0.15654128439E-01 -0.10253783600E-01  0.12239717509E-01  0.50000500000E+01  0.50000000000E+01 0.  1.
     100001    1    1    2    0    0 -0.15654128439E-01  0.10253783600E-01 -0.12239717509E-01  0.50000500000E+01  0.50000000000E+01 0. -1.
</event>
<event>
 4    1  0.4919875E-001  0.5000050E+01  0.7818608E-02  0.2136455E+00
        -11   -1    0    0    0    0  0.00000000000E+00  0.00000000000E+00  0.50000499739E+01  0.50000500000E+01  0.51100000000E-03 0.  1.
         11   -1    0    0    0    0 -0.00000000000E+00 -0.00000000000E+00 -0.50000499739E+01  0.50000500000E+01  0.51100000000E-03 0. -1.
     100001    1    1    2    0    0  0.12980443136E-01 -0.16458048398E-01 -0.77873768957E-02  0.50000500000E+01  0.50000000000E+01 0.  0.
     100001    1    1    2    0    0 -0.12980443136E-01  0.16458048398E-01  0.77873768957E-02  0.50000500000E+01  0.50000000000E+01 0.  0.
</event>
<event>
 4    1  0.4919875E-001  0.5000050E+01  0.7818608E-02  0.2136455E+00
        -11   -1    0    0    0    0  0.00000000000E+00  0.00000000000E+00  0.50000499739E+01  0.50000500000E+01  0.51100000000E-03 0.  1.
         11   -1    0    0    0    0 -0.00000000000E+00 -0.00000000000E+00 -0.50000499739E+01  0.50000500000E+01  0.51100000000E-03 0. -1.
     100001    1    1    2    0    0  0.12156258204E-01  0.10439990853E-01 -0.15595976323E-01  0.50000500000E+01  0.50000000000E+01 0. -1.
     100001    1    1    2    0    0 -0.12156258204E-01 -0.10439990853E-01  0.15595976323E-01  0.50000500000E+01  0.50000000000E+01 0.  1.
</event>
<event>
 4    1  0.4919875E-001  0.5000050E+01  0.7818608E-02  0.2136455E+00
        -11   -1    0    0    0    0  0.00000000000E+00  0.00000000000E+00  0.50000499739E+01  0.50000500000E+01  0.51100000000E-03 0. -1.
         11   -1    0    0    0    0 -0.00000000000E+00 -0.00000000000E+00 -0.50000499739E+01  0.50000500000E+01  0.51100000000E-03 0.  1.
     100001    1    1    2    0    0 -0.11880631393E-01 -0.14844317126E-01  0.11768574541E-01  0.50000500000E+01  0.50000000000E+01 0. -1.
     100001    1    1    2    0    0  0.11880631393E-01  0.14844317126E-01 -0.11768574541E-01  0.50000500000E+01  0.50000000000E+01 0.  1.
</event>
<event>
 4    1  0.4919875E-001  0.5000050E+01  0.7818608E-02  0.2136455E+00
        -11   -1    0    0    0    0  0.00000000000E+00  0.00000000000E+00  0.50000499739E+01  0.50000500000E+01  0.51100000000E-03 0.  1.
         11   -1    0    0    0    0 -0.00000000000E+00 -0.00000000000E+00 -0.50000499739E+01  0.50000500000E+01  0.51100000000E-03 0. -1.
     100001    1    1    2    0    0  0.21612407261E-01  0.21471600200E-02  0.53194037461E-02  0.50000500000E+01  0.50000000000E+01 0.  0.
     100001    1    1    2    0    0 -0.21612407261E-01 -0.21471600200E-02 -0.53194037461E-02  0.50000500000E+01  0.50000000000E+01 0.  0.
</event>
<event>
 4    1  0.4919875E-001  0.5000050E+01  0.7818608E-02  0.2136455E+00
        -11   -1    0    0    0    0  0.00000000000E+00  0.00000000000E+00  0.50000499739E+01  0.50000500000E+01  0.51100000000E-03 0. -1.
         11   -1    0    0    0    0 -0.00000000000E+00 -0.00000000000E+00 -0.50000499739E+01  0.50000500000E+01  0.51100000000E-03 0.  1.
     100001    1    1    2    0    0 -0.21271545054E-01  0.27493289763E-02  0.63217925621E-02  0.50000500000E+01  0.50000000000E+01 0. -1.
     100001    1    1    2    0    0  0.21271545054E-01 -0.27493289763E-02 -0.63217925621E-02  0.50000500000E+01  0.50000000000E+01 0.  1.
</event>
<event>
 4    1  0.4919875E-001  0.5000050E+01  0.7818608E-02  0.2136455E+00
        -11   -1    0    0    0    0  0.00000000000E+00  0.00000000000E+00  0.50000499739E+01  0.50000500000E+01  0.51100000000E-03 0. -1.
         11   -1    0    0    0    0 -0.00000000000E+00 -0.00000000000E+00 -0.50000499739E+01  0.50000500000E+01  0.51100000000E-03 0.  1.
     100001    1    1    2    0    0 -0.25433711418E-02  0.13913422361E-01 -0.17319077384E-01  0.50000500000E+01  0.50000000000E+01 0.  0.
     100001    1    1    2    0    0  0.25433711418E-02 -0.13913422361E-01  0.17319077384E-01  0.50000500000E+01  0.50000000000E+01 0.  0.
</event>
<event>
 4    1  0.4919875E-001  0.5000050E+01  0.7818608E-02  0.2136455E+00
        -11   -1    0    0    0    0  0.00000000000E+00  0.00000000000E+00  0.50000499739E+01  0.50000500000E+01  0.51100000000E-03 0. -1.
         11   -1    0    0    0    0 -0.00000000000E+00 -0.00000000000E+00 -0.50000499739E+01  0.50000500000E+01  0.51100000000E-03 0.  1.
     100001    1    1    2    0    0 -0.16750223276E-01 -0.10785094289E-02  0.14773941168E-01  0.50000500000E+01  0.50000000000E+01 0.  0.
     100001    1    1    2    0    0  0.16750223276E-01  0.10785094289E-02 -0.14773941168E-01  0.50000500000E+01  0.50000000000E+01 0.  0.
</event>
<event>
 4    1  0.4919875E-001  0.5000050E+01  0.7818608E-02  0.2136455E+00
        -11   -1    0    0    0    0  0.00000000000E+00  0.00000000000E+00  0.50000499739E+01  0.50000500000E+01  0.51100000000E-03 0. -1.
         11   -1    0    0    0    0 -0.00000000000E+00 -0.00000000000E+00 -0.50000499739E+01  0.50000500000E+01  0.51100000000E-03 0.  1.
     100001    1    1    2    0    0 -0.11167649527E-01 -0.18962550437E-01  0.39633048018E-02  0.50000500000E+01  0.50000000000E+01 0.  1.
     100001    1    1    2    0    0  0.11167649527E-01  0.18962550437E-01 -0.39633048018E-02  0.50000500000E+01  0.50000000000E+01 0. -1.
</event>
<event>
 4    1  0.4919875E-001  0.5000050E+01  0.7818608E-02  0.2136455E+00
        -11   -1    0    0    0    0  0.00000000000E+00  0.00000000000E+00  0.50000499739E+01  0.50000500000E+01  0.51100000000E-03 0. -1.
         11   -1    0    0    0    0 -0.00000000000E+00 -0.00000000000E+00 -0.50000499739E+01  0.50000500000E+01  0.51100000000E-03 0.  1.
     100001    1    1    2    0    0  0.21519302951E-01  0.60666280894E-02 -0.34369188271E-03  0.50000500000E+01  0.50000000000E+01 0.  1.
     100001    1    1    2    0    0 -0.21519302951E-01 -0.60666280894E-02  0.34369188271E-03  0.50000500000E+01  0.50000000000E+01 0.  0.
</event>
<event>
 4    1  0.4919875E-001  0.5000050E+01  0.7818608E-02  0.2136455E+00
        -11   -1    0    0    0    0  0.00000000000E+00  0.00000000000E+00  0.50000499739E+01  0.50000500000E+01  0.51100000000E-03 0. -1.
         11   -1    0    0    0    0 -0.00000000000E+00 -0.00000000000E+00 -0.50000499739E+01  0.50000500000E+01  0.51100000000E-03 0.  1.
     100001    1    1    2    0    0 -0.13770510451E-01 -0.36303461139E-02  0.17239377280E-01  0.50000500000E+01  0.50000000000E+01 0. -1.
     100001    1    1    2    0    0  0.13770510451E-01  0.36303461139E-02 -0.17239377280E-01  0.50000500000E+01  0.50000000000E+01 0.  1.
</event>
<event>
 4    1  0.4919875E-001  0.5000050E+01  0.7818608E-02  0.2136455E+00
        -11   -1    0    0    0    0  0.00000000000E+00  0.00000000000E+00  0.50000499739E+01  0.50000500000E+01  0.51100000000E-03 0. -1.
         11   -1    0    0    0    0 -0.00000000000E+00 -0.00000000000E+00 -0.50000499739E+01  0.50000500000E+01  0.51100000000E-03 0.  1.
     100001    1    1    2    0    0  0.40769049122E-02  0.17284620350E-02 -0.21917886881E-01  0.50000500000E+01  0.50000000000E+01 0.  0.
     100001    1    1    2    0    0 -0.40769049122E-02 -0.17284620350E-02  0.21917886881E-01  0.50000500000E+01  0.50000000000E+01 0. -1.
</event>
<event>
 4    1  0.4919875E-001  0.5000050E+01  0.7818608E-02  0.2136455E+00
        -11   -1    0    0    0    0  0.00000000000E+00  0.00000000000E+00  0.50000499739E+01  0.50000500000E+01  0.51100000000E-03 0. -1.
         11   -1    0    0    0    0 -0.00000000000E+00 -0.00000000000E+00 -0.50000499739E+01  0.50000500000E+01  0.51100000000E-03 0.  1.
     100001    1    1    2    0    0 -0.21810732344E-01  0.38121516878E-02 -0.31244126063E-02  0.50000500000E+01  0.50000000000E+01 0.  0.
     100001    1    1    2    0    0  0.21810732344E-01 -0.38121516878E-02  0.31244126063E-02  0.50000500000E+01  0.50000000000E+01 0.  1.
</event>
<event>
 4    1  0.4919875E-001  0.5000050E+01  0.7818608E-02  0.2136455E+00
        -11   -1    0    0    0    0  0.00000000000E+00  0.00000000000E+00  0.50000499739E+01  0.50000500000E+01  0.51100000000E-03 0. -1.
         11   -1    0    0    0    0 -0.00000000000E+00 -0.00000000000E+00 -0.50000499739E+01  0.50000500000E+01  0.51100000000E-03 0.  1.
     100001    1    1    2    0    0  0.65044138017E-02  0.17696945939E-01  0.12021364545E-01  0.50000500000E+01  0.50000000000E+01 0. -1.
     100001    1    1    2    0    0 -0.65044138017E-02 -0.17696945939E-01 -0.12021364545E-01  0.50000500000E+01  0.50000000000E+01 0.  1.
</event>
<event>
 4    1  0.4919875E-001  0.5000050E+01  0.7818608E-02  0.2136455E+00
        -11   -1    0    0    0    0  0.00000000000E+00  0.00000000000E+00  0.50000499739E+01  0.50000500000E+01  0.51100000000E-03 0. -1.
         11   -1    0    0    0    0 -0.00000000000E+00 -0.00000000000E+00 -0.50000499739E+01  0.50000500000E+01  0.51100000000E-03 0.  1.
     100001    1    1    2    0    0  0.39466579931E-02 -0.16260733048E-01  0.14832900978E-01  0.50000500000E+01  0.50000000000E+01 0.  0.
     100001    1    1    2    0    0 -0.39466579931E-02  0.16260733048E-01 -0.14832900978E-01  0.50000500000E+01  0.50000000000E+01 0.  0.
</event>
<event>
 4    1  0.4919875E-001  0.5000050E+01  0.7818608E-02  0.2136455E+00
        -11   -1    0    0    0    0  0.00000000000E+00  0.00000000000E+00  0.50000499739E+01  0.50000500000E+01  0.51100000000E-03 0.  1.
         11   -1    0    0    0    0 -0.00000000000E+00 -0.00000000000E+00 -0.50000499739E+01  0.50000500000E+01  0.51100000000E-03 0. -1.
     100001    1    1    2    0    0 -0.40126701782E-02 -0.12340750924E-01 -0.18210075362E-01  0.50000500000E+01  0.50000000000E+01 0. -1.
     100001    1    1    2    0    0  0.40126701782E-02  0.12340750924E-01  0.18210075362E-01  0.50000500000E+01  0.50000000000E+01 0.  1.
</event>
<event>
 4    1  0.4919875E-001  0.5000050E+01  0.7818608E-02  0.2136455E+00
        -11   -1    0    0    0    0  0.00000000000E+00  0.00000000000E+00  0.50000499739E+01  0.50000500000E+01  0.51100000000E-03 0. -1.
         11   -1    0    0    0    0 -0.00000000000E+00 -0.00000000000E+00 -0.50000499739E+01  0.50000500000E+01  0.51100000000E-03 0.  1.
     100001    1    1    2    0    0 -0.13595611053E-01  0.14957657809E-01 -0.95619209862E-02  0.50000500000E+01  0.50000000000E+01 0. -1.
     100001    1    1    2    0    0  0.13595611053E-01 -0.14957657809E-01  0.95619209862E-02  0.50000500000E+01  0.50000000000E+01 0.  0.
</event>
<event>
 4    1  0.4919875E-001  0.5000050E+01  0.7818608E-02  0.2136455E+00
        -11   -1    0    0    0    0  0.00000000000E+00  0.00000000000E+00  0.50000499739E+01  0.50000500000E+01  0.51100000000E-03 0. -1.
         11   -1    0    0    0    0 -0.00000000000E+00 -0.00000000000E+00 -0.50000499739E+01  0.50000500000E+01  0.51100000000E-03 0.  1.
     100001    1    1    2    0    0  0.16599104549E-01 -0.84031977397E-02  0.12403970973E-01  0.50000500000E+01  0.50000000000E+01 0. -1.
     100001    1    1    2    0    0 -0.16599104549E-01  0.84031977397E-02 -0.12403970973E-01  0.50000500000E+01  0.50000000000E+01 0.  1.
</event>
<event>
 4    1  0.4919875E-001  0.5000050E+01  0.7818608E-02  0.2136455E+00
        -11   -1    0    0    0    0  0.00000000000E+00  0.00000000000E+00  0.50000499739E+01  0.50000500000E+01  0.51100000000E-03 0.  1.
         11   -1    0    0    0    0 -0.00000000000E+00 -0.00000000000E+00 -0.50000499739E+01  0.50000500000E+01  0.51100000000E-03 0. -1.
     100001    1    1    2    0    0 -0.22713637506E-02 -0.16472138303E-01 -0.14950319945E-01  0.50000500000E+01  0.50000000000E+01 0.  0.
     100001    1    1    2    0    0  0.22713637506E-02  0.16472138303E-01  0.14950319945E-01  0.50000500000E+01  0.50000000000E+01 0.  0.
</event>
<event>
 4    1  0.4919875E-001  0.5000050E+01  0.7818608E-02  0.2136455E+00
        -11   -1    0    0    0    0  0.00000000000E+00  0.00000000000E+00  0.50000499739E+01  0.50000500000E+01  0.51100000000E-03 0. -1.
         11   -1    0    0    0    0 -0.00000000000E+00 -0.00000000000E+00 -0.50000499739E+01  0.50000500000E+01  0.51100000000E-03 0.  1.
     100001    1    1    2    0    0 -0.44501047872E-02 -0.11154010590E-01  0.18862319983E-01  0.50000500000E+01  0.50000000000E+01 0.  0.
     100001    1    1    2    0    0  0.44501047872E-02  0.11154010590E-01 -0.18862319983E-01  0.50000500000E+01  0.50000000000E+01 0.  1.
</event>
<event>
 4    1  0.4919875E-001  0.5000050E+01  0.7818608E-02  0.2136455E+00
        -11   -1    0    0    0    0  0.00000000000E+00  0.00000000000E+00  0.50000499739E+01  0.50000500000E+01  0.51100000000E-03 0. -1.
         11   -1    0    0    0    0 -0.00000000000E+00 -0.00000000000E+00 -0.50000499739E+01  0.50000500000E+01  0.51100000000E-03 0.  1.
     100001    1    1    2    0    0  0.45834944085E-02  0.83327849901E-02  0.20237558482E-01  0.50000500000E+01  0.50000000000E+01 0. -1.
     100001    1    1    2    0    0 -0.45834944085E-02 -0.83327849901E-02 -0.20237558482E-01  0.50000500000E+01  0.50000000000E+01 0.  1.
</event>
<event>
 4    1  0.4919875E-001  0.5000050E+01  0.7818608E-02  0.2136455E+00
        -11   -1    0    0    0    0  0.00000000000E+00  0.00000000000E+00  0.50000499739E+01  0.50000500000E+01  0.51100000000E-03 0. -1.
         11   -1    0    0    0    0 -0.00000000000E+00 -0.00000000000E+00 -0.50000499739E+01  0.50000500000E+01  0.51100000000E-03 0.  1.
     100001    1    1    2    0    0 -0.67773844613E-02  0.19214917733E-01  0.92117585921E-02  0.50000500000E+01  0.50000000000E+01 0.  1.
     100001    1    1    2    0    0  0.67773844613E-02 -0.19214917733E-01 -0.92117585921E-02  0.50000500000E+01  0.50000000000E+01 0.  1.
</event>
<event>
 4    1  0.4919875E-001  0.5000050E+01  0.7818608E-02  0.2136455E+00
        -11   -1    0    0    0    0  0.00000000000E+00  0.00000000000E+00  0.50000499739E+01  0.50000500000E+01  0.51100000000E-03 0.  1.
         11   -1    0    0    0    0 -0.00000000000E+00 -0.00000000000E+00 -0.50000499739E+01  0.50000500000E+01  0.51100000000E-03 0. -1.
     100001    1    1    2    0    0  0.20594441382E-01  0.37486315022E-02 -0.78625216066E-02  0.50000500000E+01  0.50000000000E+01 0. -1.
     100001    1    1    2    0    0 -0.20594441382E-01 -0.37486315022E-02  0.78625216066E-02  0.50000500000E+01  0.50000000000E+01 0.  0.
</event>
<event>
 4    1  0.4919875E-001  0.5000050E+01  0.7818608E-02  0.2136455E+00
        -11   -1    0    0    0    0  0.00000000000E+00  0.00000000000E+00  0.50000499739E+01  0.50000500000E+01  0.51100000000E-03 0. -1.
         11   -1    0    0    0    0 -0.00000000000E+00 -0.00000000000E+00 -0.50000499739E+01  0.50000500000E+01  0.51100000000E-03 0.  1.
     100001    1    1    2    0    0  0.16936072631E-01 -0.13866624595E-01 -0.45704120353E-02  0.50000500000E+01  0.50000000000E+01 0.  1.
     100001    1    1    2    0    0 -0.16936072631E-01  0.13866624595E-01  0.45704120353E-02  0.50000500000E+01  0.50000000000E+01 0.  0.
</event>
<event>
 4    1  0.4919875E-001  0.5000050E+01  0.7818608E-02  0.2136455E+00
        -11   -1    0    0    0    0  0.00000000000E+00  0.00000000000E+00  0.50000499739E+01  0.50000500000E+01  0.51100000000E-03 0.  1.
         11   -1    0    0    0    0 -0.00000000000E+00 -0.00000000000E+00 -0.50000499739E+01  0.50000500000E+01  0.51100000000E-03 0. -1.
     100001    1    1    2    0    0  0.14978524846E-01  0.78244302249E-02 -0.14643243667E-01  0.50000500000E+01  0.50000000000E+01 0.  0.
     100001    1    1    2    0    0 -0.14978524846E-01 -0.78244302249E-02  0.14643243667E-01  0.50000500000E+01  0.50000000000E+01 0.  0.
</event>
<event>
 4    1  0.4919875E-001  0.5000050E+01  0.7818608E-02  0.2136455E+00
        -11   -1    0    0    0    0  0.00000000000E+00  0.00000000000E+00  0.50000499739E+01  0.50000500000E+01  0.51100000000E-03 0. -1.
         11   -1    0    0    0    0 -0.00000000000E+00 -0.00000000000E+00 -0.50000499739E+01  0.50000500000E+01  0.51100000000E-03 0.  1.
     100001    1    1    2    0    0  0.10450656811E-01  0.19374834857E-01  0.39245441083E-02  0.50000500000E+01  0.50000000000E+01 0.  0.
     100001    1    1    2    0    0 -0.10450656811E-01 -0.19374834857E-01 -0.39245441083E-02  0.50000500000E+01  0.50000000000E+01 0. -1.
</event>
<event>
 4    1  0.4919875E-001  0.5000050E+01  0.7818608E-02  0.2136455E+00
        -11   -1    0    0    0    0  0.00000000000E+00  0.00000000000E+00  0.50000499739E+01  0.50000500000E+01  0.51100000000E-03 0. -1.
         11   -1    0    0    0    0 -0.00000000000E+00 -0.00000000000E+00 -0.50000499739E+01  0.50000500000E+01  0.51100000000E-03 0.  1.
     100001    1    1    2    0    0  0.18081263987E-01  0.62569556416E-02 -0.11572419744E-01  0.50000500000E+01  0.50000000000E+01 0.  1.
     100001    1    1    2    0    0 -0.18081263987E-01 -0.62569556416E-02  0.11572419744E-01  0.50000500000E+01  0.50000000000E+01 0. -1.
</event>
<event>
 4    1  0.4919875E-001  0.5000050E+01  0.7818608E-02  0.2136455E+00
        -11   -1    0    0    0    0  0.00000000000E+00  0.00000000000E+00  0.50000499739E+01  0.50000500000E+01  0.51100000000E-03 0. -1.
         11   -1    0    0    0    0 -0.00000000000E+00 -0.00000000000E+00 -0.50000499739E+01  0.50000500000E+01  0.51100000000E-03 0.  1.
     100001    1    1    2    0    0  0.21617850371E-01 -0.55177147139E-02 -0.14919348679E-02  0.50000500000E+01  0.50000000000E+01 0.  1.
     100001    1    1    2    0    0 -0.21617850371E-01  0.55177147139E-02  0.14919348679E-02  0.50000500000E+01  0.50000000000E+01 0.  0.
</event>
<event>
 4    1  0.4919875E-001  0.5000050E+01  0.7818608E-02  0.2136455E+00
        -11   -1    0    0    0    0  0.00000000000E+00  0.00000000000E+00  0.50000499739E+01  0.50000500000E+01  0.51100000000E-03 0.  1.
         11   -1    0    0    0    0 -0.00000000000E+00 -0.00000000000E+00 -0.50000499739E+01  0.50000500000E+01  0.51100000000E-03 0. -1.
     100001    1    1    2    0    0  0.10111976449E-01  0.19379861622E-01 -0.47086511687E-02  0.50000500000E+01  0.50000000000E+01 0. -1.
     100001    1    1    2    0    0 -0.10111976449E-01 -0.19379861622E-01  0.47086511687E-02  0.50000500000E+01  0.50000000000E+01 0.  1.
</event>
<event>
 4    1  0.4919875E-001  0.5000050E+01  0.7818608E-02  0.2136455E+00
        -11   -1    0    0    0    0  0.00000000000E+00  0.00000000000E+00  0.50000499739E+01  0.50000500000E+01  0.51100000000E-03 0.  1.
         11   -1    0    0    0    0 -0.00000000000E+00 -0.00000000000E+00 -0.50000499739E+01  0.50000500000E+01  0.51100000000E-03 0. -1.
     100001    1    1    2    0    0  0.20375666014E-01  0.52263494737E-02 -0.75841944647E-02  0.50000500000E+01  0.50000000000E+01 0. -1.
     100001    1    1    2    0    0 -0.20375666014E-01 -0.52263494737E-02  0.75841944647E-02  0.50000500000E+01  0.50000000000E+01 0.  1.
</event>
<event>
 4    1  0.4919875E-001  0.5000050E+01  0.7818608E-02  0.2136455E+00
        -11   -1    0    0    0    0  0.00000000000E+00  0.00000000000E+00  0.50000499739E+01  0.50000500000E+01  0.51100000000E-03 0.  1.
         11   -1    0    0    0    0 -0.00000000000E+00 -0.00000000000E+00 -0.50000499739E+01  0.50000500000E+01  0.51100000000E-03 0. -1.
     100001    1    1    2    0    0  0.15246062766E-01  0.14047356808E-01  0.83804437133E-02  0.50000500000E+01  0.50000000000E+01 0. -1.
     100001    1    1    2    0    0 -0.15246062766E-01 -0.14047356808E-01 -0.83804437133E-02  0.50000500000E+01  0.50000000000E+01 0.  0.
</event>
<event>
 4    1  0.4919875E-001  0.5000050E+01  0.7818608E-02  0.2136455E+00
        -11   -1    0    0    0    0  0.00000000000E+00  0.00000000000E+00  0.50000499739E+01  0.50000500000E+01  0.51100000000E-03 0.  1.
         11   -1    0    0    0    0 -0.00000000000E+00 -0.00000000000E+00 -0.50000499739E+01  0.50000500000E+01  0.51100000000E-03 0. -1.
     100001    1    1    2    0    0 -0.13213462613E-01 -0.17989364467E-01 -0.13377861749E-02  0.50000500000E+01  0.50000000000E+01 0. -1.
     100001    1    1    2    0    0  0.13213462613E-01  0.17989364467E-01  0.13377861749E-02  0.50000500000E+01  0.50000000000E+01 0.  1.
</event>
<event>
 4    1  0.4919875E-001  0.5000050E+01  0.7818608E-02  0.2136455E+00
        -11   -1    0    0    0    0  0.00000000000E+00  0.00000000000E+00  0.50000499739E+01  0.50000500000E+01  0.51100000000E-03 0. -1.
         11   -1    0    0    0    0 -0.00000000000E+00 -0.00000000000E+00 -0.50000499739E+01  0.50000500000E+01  0.51100000000E-03 0.  1.
     100001    1    1    2    0    0 -0.19360675684E-01  0.45515405876E-02 -0.10220088812E-01  0.50000500000E+01  0.50000000000E+01 0.  1.
     100001    1    1    2    0    0  0.19360675684E-01 -0.45515405876E-02  0.10220088812E-01  0.50000500000E+01  0.50000000000E+01 0. -1.
</event>
<event>
 4    1  0.4919875E-001  0.5000050E+01  0.7818608E-02  0.2136455E+00
        -11   -1    0    0    0    0  0.00000000000E+00  0.00000000000E+00  0.50000499739E+01  0.50000500000E+01  0.51100000000E-03 0.  1.
         11   -1    0    0    0    0 -0.00000000000E+00 -0.00000000000E+00 -0.50000499739E+01  0.50000500000E+01  0.51100000000E-03 0. -1.
     100001    1    1    2    0    0 -0.28470442476E-02  0.20883183039E-01  0.74692372569E-02  0.50000500000E+01  0.50000000000E+01 0.  1.
     100001    1    1    2    0    0  0.28470442476E-02 -0.20883183039E-01 -0.74692372569E-02  0.50000500000E+01  0.50000000000E+01 0. -1.
</event>
<event>
 4    1  0.4919875E-001  0.5000050E+01  0.7818608E-02  0.2136455E+00
        -11   -1    0    0    0    0  0.00000000000E+00  0.00000000000E+00  0.50000499739E+01  0.50000500000E+01  0.51100000000E-03 0.  1.
         11   -1    0    0    0    0 -0.00000000000E+00 -0.00000000000E+00 -0.50000499739E+01  0.50000500000E+01  0.51100000000E-03 0. -1.
     100001    1    1    2    0    0 -0.21491030735E-01 -0.57534994159E-02  0.22439568681E-02  0.50000500000E+01  0.50000000000E+01 0.  1.
     100001    1    1    2    0    0  0.21491030735E-01  0.57534994159E-02 -0.22439568681E-02  0.50000500000E+01  0.50000000000E+01 0.  0.
</event>
<event>
 4    1  0.4919875E-001  0.5000050E+01  0.7818608E-02  0.2136455E+00
        -11   -1    0    0    0    0  0.00000000000E+00  0.00000000000E+00  0.50000499739E+01  0.50000500000E+01  0.51100000000E-03 0. -1.
         11   -1    0    0    0    0 -0.00000000000E+00 -0.00000000000E+00 -0.50000499739E+01  0.50000500000E+01  0.51100000000E-03 0.  1.
     100001    1    1    2    0    0 -0.23611310321E-02  0.52063771836E-02  0.21617613117E-01  0.50000500000E+01  0.50000000000E+01 0.  0.
     100001    1    1    2    0    0  0.23611310321E-02 -0.52063771836E-02 -0.21617613117E-01  0.50000500000E+01  0.50000000000E+01 0.  1.
</event>
<event>
 4    1  0.4919875E-001  0.5000050E+01  0.7818608E-02  0.2136455E+00
        -11   -1    0    0    0    0  0.00000000000E+00  0.00000000000E+00  0.50000499739E+01  0.50000500000E+01  0.51100000000E-03 0.  1.
         11   -1    0    0    0    0 -0.00000000000E+00 -0.00000000000E+00 -0.50000499739E+01  0.50000500000E+01  0.51100000000E-03 0. -1.
     100001    1    1    2    0    0 -0.19359708987E-01 -0.51100461458E-02  0.99544761945E-02  0.50000500000E+01  0.50000000000E+01 0.  1.
     100001    1    1    2    0    0  0.19359708987E-01  0.51100461458E-02 -0.99544761945E-02  0.50000500000E+01  0.50000000000E+01 0. -1.
</event>
<event>
 4    1  0.4919875E-001  0.5000050E+01  0.7818608E-02  0.2136455E+00
        -11   -1    0    0    0    0  0.00000000000E+00  0.00000000000E+00  0.50000499739E+01  0.50000500000E+01  0.51100000000E-03 0.  1.
         11   -1    0    0    0    0 -0.00000000000E+00 -0.00000000000E+00 -0.50000499739E+01  0.50000500000E+01  0.51100000000E-03 0. -1.
     100001    1    1    2    0    0 -0.10894503151E-01 -0.66520042113E-02 -0.18359279426E-01  0.50000500000E+01  0.50000000000E+01 0.  0.
     100001    1    1    2    0    0  0.10894503151E-01  0.66520042113E-02  0.18359279426E-01  0.50000500000E+01  0.50000000000E+01 0.  1.
</event>
<event>
 4    1  0.4919875E-001  0.5000050E+01  0.7818608E-02  0.2136455E+00
        -11   -1    0    0    0    0  0.00000000000E+00  0.00000000000E+00  0.50000499739E+01  0.50000500000E+01  0.51100000000E-03 0. -1.
         11   -1    0    0    0    0 -0.00000000000E+00 -0.00000000000E+00 -0.50000499739E+01  0.50000500000E+01  0.51100000000E-03 0.  1.
     100001    1    1    2    0    0  0.12668950416E-02 -0.21221002782E-01  0.69330020823E-02  0.50000500000E+01  0.50000000000E+01 0.  1.
     100001    1    1    2    0    0 -0.12668950416E-02  0.21221002782E-01 -0.69330020823E-02  0.50000500000E+01  0.50000000000E+01 0.  0.
</event>
<event>
 4    1  0.4919875E-001  0.5000050E+01  0.7818608E-02  0.2136455E+00
        -11   -1    0    0    0    0  0.00000000000E+00  0.00000000000E+00  0.50000499739E+01  0.50000500000E+01  0.51100000000E-03 0.  1.
         11   -1    0    0    0    0 -0.00000000000E+00 -0.00000000000E+00 -0.50000499739E+01  0.50000500000E+01  0.51100000000E-03 0. -1.
     100001    1    1    2    0    0  0.13348507723E-02  0.18894801613E-01 -0.11883061282E-01  0.50000500000E+01  0.50000000000E+01 0.  0.
     100001    1    1    2    0    0 -0.13348507723E-02 -0.18894801613E-01  0.11883061282E-01  0.50000500000E+01  0.50000000000E+01 0. -1.
</event>
<event>
 4    1  0.4919875E-001  0.5000050E+01  0.7818608E-02  0.2136455E+00
        -11   -1    0    0    0    0  0.00000000000E+00  0.00000000000E+00  0.50000499739E+01  0.50000500000E+01  0.51100000000E-03 0. -1.
         11   -1    0    0    0    0 -0.00000000000E+00 -0.00000000000E+00 -0.50000499739E+01  0.50000500000E+01  0.51100000000E-03 0.  1.
     100001    1    1    2    0    0 -0.15561422443E-01  0.46319471671E-02  0.15374969821E-01  0.50000500000E+01  0.50000000000E+01 0.  1.
     100001    1    1    2    0    0  0.15561422443E-01 -0.46319471671E-02 -0.15374969821E-01  0.50000500000E+01  0.50000000000E+01 0.  1.
</event>
<event>
 4    1  0.4919875E-001  0.5000050E+01  0.7818608E-02  0.2136455E+00
        -11   -1    0    0    0    0  0.00000000000E+00  0.00000000000E+00  0.50000499739E+01  0.50000500000E+01  0.51100000000E-03 0.  1.
         11   -1    0    0    0    0 -0.00000000000E+00 -0.00000000000E+00 -0.50000499739E+01  0.50000500000E+01  0.51100000000E-03 0. -1.
     100001    1    1    2    0    0  0.65238920094E-02 -0.13629489226E-01  0.16482668367E-01  0.50000500000E+01  0.50000000000E+01 0.  0.
     100001    1    1    2    0    0 -0.65238920094E-02  0.13629489226E-01 -0.16482668367E-01  0.50000500000E+01  0.50000000000E+01 0. -1.
</event>
<event>
 4    1  0.4919875E-001  0.5000050E+01  0.7818608E-02  0.2136455E+00
        -11   -1    0    0    0    0  0.00000000000E+00  0.00000000000E+00  0.50000499739E+01  0.50000500000E+01  0.51100000000E-03 0. -1.
         11   -1    0    0    0    0 -0.00000000000E+00 -0.00000000000E+00 -0.50000499739E+01  0.50000500000E+01  0.51100000000E-03 0.  1.
     100001    1    1    2    0    0  0.47153895055E-02 -0.21710559099E-01 -0.25336190374E-02  0.50000500000E+01  0.50000000000E+01 0.  1.
     100001    1    1    2    0    0 -0.47153895055E-02  0.21710559099E-01  0.25336190374E-02  0.50000500000E+01  0.50000000000E+01 0.  0.
</event>
<event>
 4    1  0.4919875E-001  0.5000050E+01  0.7818608E-02  0.2136455E+00
        -11   -1    0    0    0    0  0.00000000000E+00  0.00000000000E+00  0.50000499739E+01  0.50000500000E+01  0.51100000000E-03 0. -1.
         11   -1    0    0    0    0 -0.00000000000E+00 -0.00000000000E+00 -0.50000499739E+01  0.50000500000E+01  0.51100000000E-03 0.  1.
     100001    1    1    2    0    0  0.87671284136E-02 -0.20307581650E-02 -0.20469879840E-01  0.50000500000E+01  0.50000000000E+01 0.  1.
     100001    1    1    2    0    0 -0.87671284136E-02  0.20307581650E-02  0.20469879840E-01  0.50000500000E+01  0.50000000000E+01 0.  0.
</event>
<event>
 4    1  0.4919875E-001  0.5000050E+01  0.7818608E-02  0.2136455E+00
        -11   -1    0    0    0    0  0.00000000000E+00  0.00000000000E+00  0.50000499739E+01  0.50000500000E+01  0.51100000000E-03 0. -1.
         11   -1    0    0    0    0 -0.00000000000E+00 -0.00000000000E+00 -0.50000499739E+01  0.50000500000E+01  0.51100000000E-03 0.  1.
     100001    1    1    2    0    0 -0.20404771750E-01  0.23173663687E-02 -0.88474630783E-02  0.50000500000E+01  0.50000000000E+01 0.  1.
     100001    1    1    2    0    0  0.20404771750E-01 -0.23173663687E-02  0.88474630783E-02  0.50000500000E+01  0.50000000000E+01 0. -1.
</event>
<event>
 4    1  0.4919875E-001  0.5000050E+01  0.7818608E-02  0.2136455E+00
        -11   -1    0    0    0    0  0.00000000000E+00  0.00000000000E+00  0.50000499739E+01  0.50000500000E+01  0.51100000000E-03 0. -1.
         11   -1    0    0    0    0 -0.00000000000E+00 -0.00000000000E+00 -0.50000499739E+01  0.50000500000E+01  0.51100000000E-03 0.  1.
     100001    1    1    2    0    0  0.14786952568E-02  0.18141497779E-01 -0.12988534123E-01  0.50000500000E+01  0.50000000000E+01 0.  1.
     100001    1    1    2    0    0 -0.14786952568E-02 -0.18141497779E-01  0.12988534123E-01  0.50000500000E+01  0.50000000000E+01 0. -1.
</event>
<event>
 4    1  0.4919875E-001  0.5000050E+01  0.7818608E-02  0.2136455E+00
        -11   -1    0    0    0    0  0.00000000000E+00  0.00000000000E+00  0.50000499739E+01  0.50000500000E+01  0.51100000000E-03 0.  1.
         11   -1    0    0    0    0 -0.00000000000E+00 -0.00000000000E+00 -0.50000499739E+01  0.50000500000E+01  0.51100000000E-03 0. -1.
     100001    1    1    2    0    0  0.14700003468E-01  0.13110892370E-01  0.10583803632E-01  0.50000500000E+01  0.50000000000E+01 0. -1.
     100001    1    1    2    0    0 -0.14700003468E-01 -0.13110892370E-01 -0.10583803632E-01  0.50000500000E+01  0.50000000000E+01 0.  0.
</event>
<event>
 4    1  0.4919875E-001  0.5000050E+01  0.7818608E-02  0.2136455E+00
        -11   -1    0    0    0    0  0.00000000000E+00  0.00000000000E+00  0.50000499739E+01  0.50000500000E+01  0.51100000000E-03 0.  1.
         11   -1    0    0    0    0 -0.00000000000E+00 -0.00000000000E+00 -0.50000499739E+01  0.50000500000E+01  0.51100000000E-03 0. -1.
     100001    1    1    2    0    0 -0.51612521632E-02 -0.12614414867E-01  0.17726830333E-01  0.50000500000E+01  0.50000000000E+01 0.  0.
     100001    1    1    2    0    0  0.51612521632E-02  0.12614414867E-01 -0.17726830333E-01  0.50000500000E+01  0.50000000000E+01 0.  0.
</event>
<event>
 4    1  0.4919875E-001  0.5000050E+01  0.7818608E-02  0.2136455E+00
        -11   -1    0    0    0    0  0.00000000000E+00  0.00000000000E+00  0.50000499739E+01  0.50000500000E+01  0.51100000000E-03 0.  1.
         11   -1    0    0    0    0 -0.00000000000E+00 -0.00000000000E+00 -0.50000499739E+01  0.50000500000E+01  0.51100000000E-03 0. -1.
     100001    1    1    2    0    0  0.13837278688E-01  0.15187389748E-01  0.88247045924E-02  0.50000500000E+01  0.50000000000E+01 0.  1.
     100001    1    1    2    0    0 -0.13837278688E-01 -0.15187389748E-01 -0.88247045924E-02  0.50000500000E+01  0.50000000000E+01 0. -1.
</event>
<event>
 4    1  0.4919875E-001  0.5000050E+01  0.7818608E-02  0.2136455E+00
        -11   -1    0    0    0    0  0.00000000000E+00  0.00000000000E+00  0.50000499739E+01  0.50000500000E+01  0.51100000000E-03 0.  1.
         11   -1    0    0    0    0 -0.00000000000E+00 -0.00000000000E+00 -0.50000499739E+01  0.50000500000E+01  0.51100000000E-03 0. -1.
     100001    1    1    2    0    0  0.12936674591E-01 -0.15114722863E-01  0.10207355352E-01  0.50000500000E+01  0.50000000000E+01 0.  1.
     100001    1    1    2    0    0 -0.12936674591E-01  0.15114722863E-01 -0.10207355352E-01  0.50000500000E+01  0.50000000000E+01 0. -1.
</event>
<event>
 4    1  0.4919875E-001  0.5000050E+01  0.7818608E-02  0.2136455E+00
        -11   -1    0    0    0    0  0.00000000000E+00  0.00000000000E+00  0.50000499739E+01  0.50000500000E+01  0.51100000000E-03 0. -1.
         11   -1    0    0    0    0 -0.00000000000E+00 -0.00000000000E+00 -0.50000499739E+01  0.50000500000E+01  0.51100000000E-03 0.  1.
     100001    1    1    2    0    0  0.20478537819E-01 -0.30467833253E-02  0.84468396557E-02  0.50000500000E+01  0.50000000000E+01 0. -1.
     100001    1    1    2    0    0 -0.20478537819E-01  0.30467833253E-02 -0.84468396557E-02  0.50000500000E+01  0.50000000000E+01 0.  1.
</event>
<event>
 4    1  0.4919875E-001  0.5000050E+01  0.7818608E-02  0.2136455E+00
        -11   -1    0    0    0    0  0.00000000000E+00  0.00000000000E+00  0.50000499739E+01  0.50000500000E+01  0.51100000000E-03 0. -1.
         11   -1    0    0    0    0 -0.00000000000E+00 -0.00000000000E+00 -0.50000499739E+01  0.50000500000E+01  0.51100000000E-03 0.  1.
     100001    1    1    2    0    0 -0.69388068402E-02 -0.21237416379E-01 -0.90972807793E-03  0.50000500000E+01  0.50000000000E+01 0.  0.
     100001    1    1    2    0    0  0.69388068402E-02  0.21237416379E-01  0.90972807793E-03  0.50000500000E+01  0.50000000000E+01 0.  1.
</event>
<event>
 4    1  0.4919875E-001  0.5000050E+01  0.7818608E-02  0.2136455E+00
        -11   -1    0    0    0    0  0.00000000000E+00  0.00000000000E+00  0.50000499739E+01  0.50000500000E+01  0.51100000000E-03 0.  1.
         11   -1    0    0    0    0 -0.00000000000E+00 -0.00000000000E+00 -0.50000499739E+01  0.50000500000E+01  0.51100000000E-03 0. -1.
     100001    1    1    2    0    0 -0.48928909764E-02  0.19891121961E-01 -0.89669049863E-02  0.50000500000E+01  0.50000000000E+01 0. -1.
     100001    1    1    2    0    0  0.48928909764E-02 -0.19891121961E-01  0.89669049863E-02  0.50000500000E+01  0.50000000000E+01 0.  1.
</event>
<event>
 4    1  0.4919875E-001  0.5000050E+01  0.7818608E-02  0.2136455E+00
        -11   -1    0    0    0    0  0.00000000000E+00  0.00000000000E+00  0.50000499739E+01  0.50000500000E+01  0.51100000000E-03 0.  1.
         11   -1    0    0    0    0 -0.00000000000E+00 -0.00000000000E+00 -0.50000499739E+01  0.50000500000E+01  0.51100000000E-03 0. -1.
     100001    1    1    2    0    0 -0.64265656976E-02  0.20977356645E-01  0.43188264034E-02  0.50000500000E+01  0.50000000000E+01 0.  1.
     100001    1    1    2    0    0  0.64265656976E-02 -0.20977356645E-01 -0.43188264034E-02  0.50000500000E+01  0.50000000000E+01 0.  0.
</event>
<event>
 4    1  0.4919875E-001  0.5000050E+01  0.7818608E-02  0.2136455E+00
        -11   -1    0    0    0    0  0.00000000000E+00  0.00000000000E+00  0.50000499739E+01  0.50000500000E+01  0.51100000000E-03 0. -1.
         11   -1    0    0    0    0 -0.00000000000E+00 -0.00000000000E+00 -0.50000499739E+01  0.50000500000E+01  0.51100000000E-03 0.  1.
     100001    1    1    2    0    0 -0.25644148915E-02  0.22206865117E-01 -0.53048841467E-03  0.50000500000E+01  0.50000000000E+01 0.  0.
     100001    1    1    2    0    0  0.25644148915E-02 -0.22206865117E-01  0.53048841467E-03  0.50000500000E+01  0.50000000000E+01 0. -1.
</event>
<event>
 4    1  0.4919875E-001  0.5000050E+01  0.7818608E-02  0.2136455E+00
        -11   -1    0    0    0    0  0.00000000000E+00  0.00000000000E+00  0.50000499739E+01  0.50000500000E+01  0.51100000000E-03 0. -1.
         11   -1    0    0    0    0 -0.00000000000E+00 -0.00000000000E+00 -0.50000499739E+01  0.50000500000E+01  0.51100000000E-03 0.  1.
     100001    1    1    2    0    0  0.17468190975E-01  0.12094420845E-01 -0.69706375948E-02  0.50000500000E+01  0.50000000000E+01 0. -1.
     100001    1    1    2    0    0 -0.17468190975E-01 -0.12094420845E-01  0.69706375948E-02  0.50000500000E+01  0.50000000000E+01 0.  1.
</event>
<event>
 4    1  0.4919875E-001  0.5000050E+01  0.7818608E-02  0.2136455E+00
        -11   -1    0    0    0    0  0.00000000000E+00  0.00000000000E+00  0.50000499739E+01  0.50000500000E+01  0.51100000000E-03 0.  1.
         11   -1    0    0    0    0 -0.00000000000E+00 -0.00000000000E+00 -0.50000499739E+01  0.50000500000E+01  0.51100000000E-03 0. -1.
     100001    1    1    2    0    0  0.17884295192E-01  0.12408230275E-01 -0.51176466217E-02  0.50000500000E+01  0.50000000000E+01 0.  0.
     100001    1    1    2    0    0 -0.17884295192E-01 -0.12408230275E-01  0.51176466217E-02  0.50000500000E+01  0.50000000000E+01 0. -1.
</event>
<event>
 4    1  0.4919875E-001  0.5000050E+01  0.7818608E-02  0.2136455E+00
        -11   -1    0    0    0    0  0.00000000000E+00  0.00000000000E+00  0.50000499739E+01  0.50000500000E+01  0.51100000000E-03 0.  1.
         11   -1    0    0    0    0 -0.00000000000E+00 -0.00000000000E+00 -0.50000499739E+01  0.50000500000E+01  0.51100000000E-03 0. -1.
     100001    1    1    2    0    0 -0.37922925692E-02  0.21017603920E-01  0.66242994001E-02  0.50000500000E+01  0.50000000000E+01 0. -1.
     100001    1    1    2    0    0  0.37922925692E-02 -0.21017603920E-01 -0.66242994001E-02  0.50000500000E+01  0.50000000000E+01 0.  0.
</event>
<event>
 4    1  0.4919875E-001  0.5000050E+01  0.7818608E-02  0.2136455E+00
        -11   -1    0    0    0    0  0.00000000000E+00  0.00000000000E+00  0.50000499739E+01  0.50000500000E+01  0.51100000000E-03 0.  1.
         11   -1    0    0    0    0 -0.00000000000E+00 -0.00000000000E+00 -0.50000499739E+01  0.50000500000E+01  0.51100000000E-03 0. -1.
     100001    1    1    2    0    0 -0.75326221224E-02 -0.86087865646E-02  0.19213300025E-01  0.50000500000E+01  0.50000000000E+01 0.  0.
     100001    1    1    2    0    0  0.75326221224E-02  0.86087865646E-02 -0.19213300025E-01  0.50000500000E+01  0.50000000000E+01 0. -1.
</event>
<event>
 4    1  0.4919875E-001  0.5000050E+01  0.7818608E-02  0.2136455E+00
        -11   -1    0    0    0    0  0.00000000000E+00  0.00000000000E+00  0.50000499739E+01  0.50000500000E+01  0.51100000000E-03 0. -1.
         11   -1    0    0    0    0 -0.00000000000E+00 -0.00000000000E+00 -0.50000499739E+01  0.50000500000E+01  0.51100000000E-03 0.  1.
     100001    1    1    2    0    0  0.37966447556E-02  0.46449391689E-02  0.21540950042E-01  0.50000500000E+01  0.50000000000E+01 0. -1.
     100001    1    1    2    0    0 -0.37966447556E-02 -0.46449391689E-02 -0.21540950042E-01  0.50000500000E+01  0.50000000000E+01 0.  0.
</event>
<event>
 4    1  0.4919875E-001  0.5000050E+01  0.7818608E-02  0.2136455E+00
        -11   -1    0    0    0    0  0.00000000000E+00  0.00000000000E+00  0.50000499739E+01  0.50000500000E+01  0.51100000000E-03 0. -1.
         11   -1    0    0    0    0 -0.00000000000E+00 -0.00000000000E+00 -0.50000499739E+01  0.50000500000E+01  0.51100000000E-03 0.  1.
     100001    1    1    2    0    0 -0.17156595276E-01 -0.14339255765E-01  0.19870239543E-03  0.50000500000E+01  0.50000000000E+01 0.  0.
     100001    1    1    2    0    0  0.17156595276E-01  0.14339255765E-01 -0.19870239543E-03  0.50000500000E+01  0.50000000000E+01 0. -1.
</event>
<event>
 4    1  0.4919875E-001  0.5000050E+01  0.7818608E-02  0.2136455E+00
        -11   -1    0    0    0    0  0.00000000000E+00  0.00000000000E+00  0.50000499739E+01  0.50000500000E+01  0.51100000000E-03 0.  1.
         11   -1    0    0    0    0 -0.00000000000E+00 -0.00000000000E+00 -0.50000499739E+01  0.50000500000E+01  0.51100000000E-03 0. -1.
     100001    1    1    2    0    0  0.14257537614E-01  0.16943209637E-01 -0.31068904678E-02  0.50000500000E+01  0.50000000000E+01 0. -1.
     100001    1    1    2    0    0 -0.14257537614E-01 -0.16943209637E-01  0.31068904678E-02  0.50000500000E+01  0.50000000000E+01 0.  1.
</event>
<event>
 4    1  0.4919875E-001  0.5000050E+01  0.7818608E-02  0.2136455E+00
        -11   -1    0    0    0    0  0.00000000000E+00  0.00000000000E+00  0.50000499739E+01  0.50000500000E+01  0.51100000000E-03 0. -1.
         11   -1    0    0    0    0 -0.00000000000E+00 -0.00000000000E+00 -0.50000499739E+01  0.50000500000E+01  0.51100000000E-03 0.  1.
     100001    1    1    2    0    0 -0.83879518244E-02 -0.19614673752E-01  0.67014429642E-02  0.50000500000E+01  0.50000000000E+01 0.  0.
     100001    1    1    2    0    0  0.83879518244E-02  0.19614673752E-01 -0.67014429642E-02  0.50000500000E+01  0.50000000000E+01 0.  0.
</event>
<event>
 4    1  0.4919875E-001  0.5000050E+01  0.7818608E-02  0.2136455E+00
        -11   -1    0    0    0    0  0.00000000000E+00  0.00000000000E+00  0.50000499739E+01  0.50000500000E+01  0.51100000000E-03 0.  1.
         11   -1    0    0    0    0 -0.00000000000E+00 -0.00000000000E+00 -0.50000499739E+01  0.50000500000E+01  0.51100000000E-03 0. -1.
     100001    1    1    2    0    0  0.17871173915E-01  0.93859889778E-02  0.96190879916E-02  0.50000500000E+01  0.50000000000E+01 0.  0.
     100001    1    1    2    0    0 -0.17871173915E-01 -0.93859889778E-02 -0.96190879916E-02  0.50000500000E+01  0.50000000000E+01 0.  0.
</event>
<event>
 4    1  0.4919875E-001  0.5000050E+01  0.7818608E-02  0.2136455E+00
        -11   -1    0    0    0    0  0.00000000000E+00  0.00000000000E+00  0.50000499739E+01  0.50000500000E+01  0.51100000000E-03 0.  1.
         11   -1    0    0    0    0 -0.00000000000E+00 -0.00000000000E+00 -0.50000499739E+01  0.50000500000E+01  0.51100000000E-03 0. -1.
     100001    1    1    2    0    0  0.17738078097E-01 -0.19655127758E-02 -0.13472187831E-01  0.50000500000E+01  0.50000000000E+01 0.  1.
     100001    1    1    2    0    0 -0.17738078097E-01  0.19655127758E-02  0.13472187831E-01  0.50000500000E+01  0.50000000000E+01 0. -1.
</event>
<event>
 4    1  0.4919875E-001  0.5000050E+01  0.7818608E-02  0.2136455E+00
        -11   -1    0    0    0    0  0.00000000000E+00  0.00000000000E+00  0.50000499739E+01  0.50000500000E+01  0.51100000000E-03 0.  1.
         11   -1    0    0    0    0 -0.00000000000E+00 -0.00000000000E+00 -0.50000499739E+01  0.50000500000E+01  0.51100000000E-03 0. -1.
     100001    1    1    2    0    0 -0.13061883796E-01  0.99242047689E-03  0.18121942316E-01  0.50000500000E+01  0.50000000000E+01 0.  1.
     100001    1    1    2    0    0  0.13061883796E-01 -0.99242047689E-03 -0.18121942316E-01  0.50000500000E+01  0.50000000000E+01 0. -1.
</event>
<event>
 4    1  0.4919875E-001  0.5000050E+01  0.7818608E-02  0.2136455E+00
        -11   -1    0    0    0    0  0.00000000000E+00  0.00000000000E+00  0.50000499739E+01  0.50000500000E+01  0.51100000000E-03 0.  1.
         11   -1    0    0    0    0 -0.00000000000E+00 -0.00000000000E+00 -0.50000499739E+01  0.50000500000E+01  0.51100000000E-03 0. -1.
     100001    1    1    2    0    0  0.90001726974E-02 -0.16446771214E-01  0.12186185131E-01  0.50000500000E+01  0.50000000000E+01 0. -1.
     100001    1    1    2    0    0 -0.90001726974E-02  0.16446771214E-01 -0.12186185131E-01  0.50000500000E+01  0.50000000000E+01 0. -1.
</event>
<event>
 4    1  0.4919875E-001  0.5000050E+01  0.7818608E-02  0.2136455E+00
        -11   -1    0    0    0    0  0.00000000000E+00  0.00000000000E+00  0.50000499739E+01  0.50000500000E+01  0.51100000000E-03 0. -1.
         11   -1    0    0    0    0 -0.00000000000E+00 -0.00000000000E+00 -0.50000499739E+01  0.50000500000E+01  0.51100000000E-03 0.  1.
     100001    1    1    2    0    0  0.87292285382E-02  0.31420164583E-02  0.20345289423E-01  0.50000500000E+01  0.50000000000E+01 0.  0.
     100001    1    1    2    0    0 -0.87292285382E-02 -0.31420164583E-02 -0.20345289423E-01  0.50000500000E+01  0.50000000000E+01 0.  0.
</event>
<event>
 4    1  0.4919875E-001  0.5000050E+01  0.7818608E-02  0.2136455E+00
        -11   -1    0    0    0    0  0.00000000000E+00  0.00000000000E+00  0.50000499739E+01  0.50000500000E+01  0.51100000000E-03 0. -1.
         11   -1    0    0    0    0 -0.00000000000E+00 -0.00000000000E+00 -0.50000499739E+01  0.50000500000E+01  0.51100000000E-03 0.  1.
     100001    1    1    2    0    0  0.15846188103E-01 -0.14906975326E-01  0.51655502367E-02  0.50000500000E+01  0.50000000000E+01 0.  1.
     100001    1    1    2    0    0 -0.15846188103E-01  0.14906975326E-01 -0.51655502367E-02  0.50000500000E+01  0.50000000000E+01 0.  0.
</event>
<event>
 4    1  0.4919875E-001  0.5000050E+01  0.7818608E-02  0.2136455E+00
        -11   -1    0    0    0    0  0.00000000000E+00  0.00000000000E+00  0.50000499739E+01  0.50000500000E+01  0.51100000000E-03 0.  1.
         11   -1    0    0    0    0 -0.00000000000E+00 -0.00000000000E+00 -0.50000499739E+01  0.50000500000E+01  0.51100000000E-03 0. -1.
     100001    1    1    2    0    0  0.35075995419E-02 -0.13390733954E-01 -0.17560964940E-01  0.50000500000E+01  0.50000000000E+01 0. -1.
     100001    1    1    2    0    0 -0.35075995419E-02  0.13390733954E-01  0.17560964940E-01  0.50000500000E+01  0.50000000000E+01 0. -1.
</event>
<event>
 4    1  0.4919875E-001  0.5000050E+01  0.7818608E-02  0.2136455E+00
        -11   -1    0    0    0    0  0.00000000000E+00  0.00000000000E+00  0.50000499739E+01  0.50000500000E+01  0.51100000000E-03 0. -1.
         11   -1    0    0    0    0 -0.00000000000E+00 -0.00000000000E+00 -0.50000499739E+01  0.50000500000E+01  0.51100000000E-03 0.  1.
     100001    1    1    2    0    0 -0.11140233128E-01 -0.83101666238E-02 -0.17516815822E-01  0.50000500000E+01  0.50000000000E+01 0.  0.
     100001    1    1    2    0    0  0.11140233128E-01  0.83101666238E-02  0.17516815822E-01  0.50000500000E+01  0.50000000000E+01 0.  0.
</event>
<event>
 4    1  0.4919875E-001  0.5000050E+01  0.7818608E-02  0.2136455E+00
        -11   -1    0    0    0    0  0.00000000000E+00  0.00000000000E+00  0.50000499739E+01  0.50000500000E+01  0.51100000000E-03 0.  1.
         11   -1    0    0    0    0 -0.00000000000E+00 -0.00000000000E+00 -0.50000499739E+01  0.50000500000E+01  0.51100000000E-03 0. -1.
     100001    1    1    2    0    0 -0.12846142726E-01 -0.38899949443E-02 -0.17884268405E-01  0.50000500000E+01  0.50000000000E+01 0.  0.
     100001    1    1    2    0    0  0.12846142726E-01  0.38899949443E-02  0.17884268405E-01  0.50000500000E+01  0.50000000000E+01 0.  0.
</event>
<event>
 4    1  0.4919875E-001  0.5000050E+01  0.7818608E-02  0.2136455E+00
        -11   -1    0    0    0    0  0.00000000000E+00  0.00000000000E+00  0.50000499739E+01  0.50000500000E+01  0.51100000000E-03 0.  1.
         11   -1    0    0    0    0 -0.00000000000E+00 -0.00000000000E+00 -0.50000499739E+01  0.50000500000E+01  0.51100000000E-03 0. -1.
     100001    1    1    2    0    0 -0.75099834020E-03 -0.11341886400E-01 -0.19256170813E-01  0.50000500000E+01  0.50000000000E+01 0.  0.
     100001    1    1    2    0    0  0.75099834020E-03  0.11341886400E-01  0.19256170813E-01  0.50000500000E+01  0.50000000000E+01 0.  1.
</event>
<event>
 4    1  0.4919875E-001  0.5000050E+01  0.7818608E-02  0.2136455E+00
        -11   -1    0    0    0    0  0.00000000000E+00  0.00000000000E+00  0.50000499739E+01  0.50000500000E+01  0.51100000000E-03 0. -1.
         11   -1    0    0    0    0 -0.00000000000E+00 -0.00000000000E+00 -0.50000499739E+01  0.50000500000E+01  0.51100000000E-03 0.  1.
     100001    1    1    2    0    0  0.11229038919E-02  0.81173434619E-02  0.20805055202E-01  0.50000500000E+01  0.50000000000E+01 0.  0.
     100001    1    1    2    0    0 -0.11229038919E-02 -0.81173434619E-02 -0.20805055202E-01  0.50000500000E+01  0.50000000000E+01 0.  1.
</event>
<event>
 4    1  0.4919875E-001  0.5000050E+01  0.7818608E-02  0.2136455E+00
        -11   -1    0    0    0    0  0.00000000000E+00  0.00000000000E+00  0.50000499739E+01  0.50000500000E+01  0.51100000000E-03 0. -1.
         11   -1    0    0    0    0 -0.00000000000E+00 -0.00000000000E+00 -0.50000499739E+01  0.50000500000E+01  0.51100000000E-03 0.  1.
     100001    1    1    2    0    0 -0.39428609248E-02 -0.21955772670E-01  0.15493205613E-02  0.50000500000E+01  0.50000000000E+01 0.  1.
     100001    1    1    2    0    0  0.39428609248E-02  0.21955772670E-01 -0.15493205613E-02  0.50000500000E+01  0.50000000000E+01 0. -1.
</event>
<event>
 4    1  0.4919875E-001  0.5000050E+01  0.7818608E-02  0.2136455E+00
        -11   -1    0    0    0    0  0.00000000000E+00  0.00000000000E+00  0.50000499739E+01  0.50000500000E+01  0.51100000000E-03 0.  1.
         11   -1    0    0    0    0 -0.00000000000E+00 -0.00000000000E+00 -0.50000499739E+01  0.50000500000E+01  0.51100000000E-03 0. -1.
     100001    1    1    2    0    0 -0.14940545679E-01 -0.16399179592E-01  0.28016965445E-02  0.50000500000E+01  0.50000000000E+01 0.  0.
     100001    1    1    2    0    0  0.14940545679E-01  0.16399179592E-01 -0.28016965445E-02  0.50000500000E+01  0.50000000000E+01 0.  0.
</event>
<event>
 4    1  0.4919875E-001  0.5000050E+01  0.7818608E-02  0.2136455E+00
        -11   -1    0    0    0    0  0.00000000000E+00  0.00000000000E+00  0.50000499739E+01  0.50000500000E+01  0.51100000000E-03 0.  1.
         11   -1    0    0    0    0 -0.00000000000E+00 -0.00000000000E+00 -0.50000499739E+01  0.50000500000E+01  0.51100000000E-03 0. -1.
     100001    1    1    2    0    0 -0.78002541526E-02  0.11912562689E-01 -0.17240921824E-01  0.50000500000E+01  0.50000000000E+01 0. -1.
     100001    1    1    2    0    0  0.78002541526E-02 -0.11912562689E-01  0.17240921824E-01  0.50000500000E+01  0.50000000000E+01 0.  0.
</event>
<event>
 4    1  0.4919875E-001  0.5000050E+01  0.7818608E-02  0.2136455E+00
        -11   -1    0    0    0    0  0.00000000000E+00  0.00000000000E+00  0.50000499739E+01  0.50000500000E+01  0.51100000000E-03 0.  1.
         11   -1    0    0    0    0 -0.00000000000E+00 -0.00000000000E+00 -0.50000499739E+01  0.50000500000E+01  0.51100000000E-03 0. -1.
     100001    1    1    2    0    0  0.10165129089E-01  0.33514494935E-02  0.19632637033E-01  0.50000500000E+01  0.50000000000E+01 0.  0.
     100001    1    1    2    0    0 -0.10165129089E-01 -0.33514494935E-02 -0.19632637033E-01  0.50000500000E+01  0.50000000000E+01 0.  0.
</event>
<event>
 4    1  0.4919875E-001  0.5000050E+01  0.7818608E-02  0.2136455E+00
        -11   -1    0    0    0    0  0.00000000000E+00  0.00000000000E+00  0.50000499739E+01  0.50000500000E+01  0.51100000000E-03 0. -1.
         11   -1    0    0    0    0 -0.00000000000E+00 -0.00000000000E+00 -0.50000499739E+01  0.50000500000E+01  0.51100000000E-03 0.  1.
     100001    1    1    2    0    0 -0.18000604721E-01 -0.10842594858E-02  0.13221388393E-01  0.50000500000E+01  0.50000000000E+01 0.  1.
     100001    1    1    2    0    0  0.18000604721E-01  0.10842594858E-02 -0.13221388393E-01  0.50000500000E+01  0.50000000000E+01 0. -1.
</event>
<event>
 4    1  0.4919875E-001  0.5000050E+01  0.7818608E-02  0.2136455E+00
        -11   -1    0    0    0    0  0.00000000000E+00  0.00000000000E+00  0.50000499739E+01  0.50000500000E+01  0.51100000000E-03 0. -1.
         11   -1    0    0    0    0 -0.00000000000E+00 -0.00000000000E+00 -0.50000499739E+01  0.50000500000E+01  0.51100000000E-03 0.  1.
     100001    1    1    2    0    0 -0.56968367295E-02  0.16226682263E-01 -0.14291372713E-01  0.50000500000E+01  0.50000000000E+01 0. -1.
     100001    1    1    2    0    0  0.56968367295E-02 -0.16226682263E-01  0.14291372713E-01  0.50000500000E+01  0.50000000000E+01 0.  1.
</event>
<event>
 4    1  0.4919875E-001  0.5000050E+01  0.7818608E-02  0.2136455E+00
        -11   -1    0    0    0    0  0.00000000000E+00  0.00000000000E+00  0.50000499739E+01  0.50000500000E+01  0.51100000000E-03 0.  1.
         11   -1    0    0    0    0 -0.00000000000E+00 -0.00000000000E+00 -0.50000499739E+01  0.50000500000E+01  0.51100000000E-03 0. -1.
     100001    1    1    2    0    0 -0.15012563368E-01 -0.21296948684E-02 -0.16434410269E-01  0.50000500000E+01  0.50000000000E+01 0.  0.
     100001    1    1    2    0    0  0.15012563368E-01  0.21296948684E-02  0.16434410269E-01  0.50000500000E+01  0.50000000000E+01 0.  1.
</event>
<event>
 4    1  0.4919875E-001  0.5000050E+01  0.7818608E-02  0.2136455E+00
        -11   -1    0    0    0    0  0.00000000000E+00  0.00000000000E+00  0.50000499739E+01  0.50000500000E+01  0.51100000000E-03 0.  1.
         11   -1    0    0    0    0 -0.00000000000E+00 -0.00000000000E+00 -0.50000499739E+01  0.50000500000E+01  0.51100000000E-03 0. -1.
     100001    1    1    2    0    0 -0.10396457918E-01 -0.16950649714E-01 -0.10227005282E-01  0.50000500000E+01  0.50000000000E+01 0.  0.
     100001    1    1    2    0    0  0.10396457918E-01  0.16950649714E-01  0.10227005282E-01  0.50000500000E+01  0.50000000000E+01 0.  0.
</event>
<event>
 4    1  0.4919875E-001  0.5000050E+01  0.7818608E-02  0.2136455E+00
        -11   -1    0    0    0    0  0.00000000000E+00  0.00000000000E+00  0.50000499739E+01  0.50000500000E+01  0.51100000000E-03 0.  1.
         11   -1    0    0    0    0 -0.00000000000E+00 -0.00000000000E+00 -0.50000499739E+01  0.50000500000E+01  0.51100000000E-03 0. -1.
     100001    1    1    2    0    0  0.18894681790E-01 -0.69315605468E-02 -0.97440735029E-02  0.50000500000E+01  0.50000000000E+01 0.  0.
     100001    1    1    2    0    0 -0.18894681790E-01  0.69315605468E-02  0.97440735029E-02  0.50000500000E+01  0.50000000000E+01 0.  0.
</event>
<event>
 4    1  0.4919875E-001  0.5000050E+01  0.7818608E-02  0.2136455E+00
        -11   -1    0    0    0    0  0.00000000000E+00  0.00000000000E+00  0.50000499739E+01  0.50000500000E+01  0.51100000000E-03 0.  1.
         11   -1    0    0    0    0 -0.00000000000E+00 -0.00000000000E+00 -0.50000499739E+01  0.50000500000E+01  0.51100000000E-03 0. -1.
     100001    1    1    2    0    0 -0.57021560163E-02 -0.27338379505E-02 -0.21447938055E-01  0.50000500000E+01  0.50000000000E+01 0.  0.
     100001    1    1    2    0    0  0.57021560163E-02  0.27338379505E-02  0.21447938055E-01  0.50000500000E+01  0.50000000000E+01 0.  1.
</event>
<event>
 4    1  0.4919875E-001  0.5000050E+01  0.7818608E-02  0.2136455E+00
        -11   -1    0    0    0    0  0.00000000000E+00  0.00000000000E+00  0.50000499739E+01  0.50000500000E+01  0.51100000000E-03 0. -1.
         11   -1    0    0    0    0 -0.00000000000E+00 -0.00000000000E+00 -0.50000499739E+01  0.50000500000E+01  0.51100000000E-03 0.  1.
     100001    1    1    2    0    0 -0.75952439000E-02 -0.31075823922E-02  0.20800425519E-01  0.50000500000E+01  0.50000000000E+01 0. -1.
     100001    1    1    2    0    0  0.75952439000E-02  0.31075823922E-02 -0.20800425519E-01  0.50000500000E+01  0.50000000000E+01 0.  1.
</event>
<event>
 4    1  0.4919875E-001  0.5000050E+01  0.7818608E-02  0.2136455E+00
        -11   -1    0    0    0    0  0.00000000000E+00  0.00000000000E+00  0.50000499739E+01  0.50000500000E+01  0.51100000000E-03 0.  1.
         11   -1    0    0    0    0 -0.00000000000E+00 -0.00000000000E+00 -0.50000499739E+01  0.50000500000E+01  0.51100000000E-03 0. -1.
     100001    1    1    2    0    0 -0.17669647958E-01  0.11665423850E-01  0.71905443074E-02  0.50000500000E+01  0.50000000000E+01 0.  0.
     100001    1    1    2    0    0  0.17669647958E-01 -0.11665423850E-01 -0.71905443074E-02  0.50000500000E+01  0.50000000000E+01 0.  1.
</event>
<event>
 4    1  0.4919875E-001  0.5000050E+01  0.7818608E-02  0.2136455E+00
        -11   -1    0    0    0    0  0.00000000000E+00  0.00000000000E+00  0.50000499739E+01  0.50000500000E+01  0.51100000000E-03 0. -1.
         11   -1    0    0    0    0 -0.00000000000E+00 -0.00000000000E+00 -0.50000499739E+01  0.50000500000E+01  0.51100000000E-03 0.  1.
     100001    1    1    2    0    0 -0.34888471406E-02 -0.18389247247E-01  0.12233806902E-01  0.50000500000E+01  0.50000000000E+01 0. -1.
     100001    1    1    2    0    0  0.34888471406E-02  0.18389247247E-01 -0.12233806902E-01  0.50000500000E+01  0.50000000000E+01 0.  1.
</event>
<event>
 4    1  0.4919875E-001  0.5000050E+01  0.7818608E-02  0.2136455E+00
        -11   -1    0    0    0    0  0.00000000000E+00  0.00000000000E+00  0.50000499739E+01  0.50000500000E+01  0.51100000000E-03 0.  1.
         11   -1    0    0    0    0 -0.00000000000E+00 -0.00000000000E+00 -0.50000499739E+01  0.50000500000E+01  0.51100000000E-03 0. -1.
     100001    1    1    2    0    0 -0.15840340428E-01 -0.13285218447E-01  0.85199228830E-02  0.50000500000E+01  0.50000000000E+01 0.  0.
     100001    1    1    2    0    0  0.15840340428E-01  0.13285218447E-01 -0.85199228830E-02  0.50000500000E+01  0.50000000000E+01 0.  1.
</event>
<event>
 4    1  0.4919875E-001  0.5000050E+01  0.7818608E-02  0.2136455E+00
        -11   -1    0    0    0    0  0.00000000000E+00  0.00000000000E+00  0.50000499739E+01  0.50000500000E+01  0.51100000000E-03 0.  1.
         11   -1    0    0    0    0 -0.00000000000E+00 -0.00000000000E+00 -0.50000499739E+01  0.50000500000E+01  0.51100000000E-03 0. -1.
     100001    1    1    2    0    0  0.21679075569E-01 -0.54445517850E-02  0.61403446513E-03  0.50000500000E+01  0.50000000000E+01 0.  1.
     100001    1    1    2    0    0 -0.21679075569E-01  0.54445517850E-02 -0.61403446513E-03  0.50000500000E+01  0.50000000000E+01 0. -1.
</event>
<event>
 4    1  0.4919875E-001  0.5000050E+01  0.7818608E-02  0.2136455E+00
        -11   -1    0    0    0    0  0.00000000000E+00  0.00000000000E+00  0.50000499739E+01  0.50000500000E+01  0.51100000000E-03 0. -1.
         11   -1    0    0    0    0 -0.00000000000E+00 -0.00000000000E+00 -0.50000499739E+01  0.50000500000E+01  0.51100000000E-03 0.  1.
     100001    1    1    2    0    0 -0.53619907932E-02 -0.11089122780E-01 -0.18662339369E-01  0.50000500000E+01  0.50000000000E+01 0.  0.
     100001    1    1    2    0    0  0.53619907932E-02  0.11089122780E-01  0.18662339369E-01  0.50000500000E+01  0.50000000000E+01 0.  0.
</event>
<event>
 4    1  0.4919875E-001  0.5000050E+01  0.7818608E-02  0.2136455E+00
        -11   -1    0    0    0    0  0.00000000000E+00  0.00000000000E+00  0.50000499739E+01  0.50000500000E+01  0.51100000000E-03 0.  1.
         11   -1    0    0    0    0 -0.00000000000E+00 -0.00000000000E+00 -0.50000499739E+01  0.50000500000E+01  0.51100000000E-03 0. -1.
     100001    1    1    2    0    0  0.20719122139E-01  0.44123093485E-02  0.71590504959E-02  0.50000500000E+01  0.50000000000E+01 0.  0.
     100001    1    1    2    0    0 -0.20719122139E-01 -0.44123093485E-02 -0.71590504959E-02  0.50000500000E+01  0.50000000000E+01 0.  1.
</event>
<event>
 4    1  0.4919875E-001  0.5000050E+01  0.7818608E-02  0.2136455E+00
        -11   -1    0    0    0    0  0.00000000000E+00  0.00000000000E+00  0.50000499739E+01  0.50000500000E+01  0.51100000000E-03 0.  1.
         11   -1    0    0    0    0 -0.00000000000E+00 -0.00000000000E+00 -0.50000499739E+01  0.50000500000E+01  0.51100000000E-03 0. -1.
     100001    1    1    2    0    0 -0.55197564923E-02  0.19840608913E-01  0.87112011934E-02  0.50000500000E+01  0.50000000000E+01 0. -1.
     100001    1    1    2    0    0  0.55197564923E-02 -0.19840608913E-01 -0.87112011934E-02  0.50000500000E+01  0.50000000000E+01 0.  0.
</event>
<event>
 4    1  0.4919875E-001  0.5000050E+01  0.7818608E-02  0.2136455E+00
        -11   -1    0    0    0    0  0.00000000000E+00  0.00000000000E+00  0.50000499739E+01  0.50000500000E+01  0.51100000000E-03 0. -1.
         11   -1    0    0    0    0 -0.00000000000E+00 -0.00000000000E+00 -0.50000499739E+01  0.50000500000E+01  0.51100000000E-03 0.  1.
     100001    1    1    2    0    0  0.12567457898E-01 -0.10592856495E-01  0.15160900147E-01  0.50000500000E+01  0.50000000000E+01 0.  0.
     100001    1    1    2    0    0 -0.12567457898E-01  0.10592856495E-01 -0.15160900147E-01  0.50000500000E+01  0.50000000000E+01 0.  0.
</event>
<event>
 4    1  0.4919875E-001  0.5000050E+01  0.7818608E-02  0.2136455E+00
        -11   -1    0    0    0    0  0.00000000000E+00  0.00000000000E+00  0.50000499739E+01  0.50000500000E+01  0.51100000000E-03 0. -1.
         11   -1    0    0    0    0 -0.00000000000E+00 -0.00000000000E+00 -0.50000499739E+01  0.50000500000E+01  0.51100000000E-03 0.  1.
     100001    1    1    2    0    0  0.21742834835E-01 -0.14339263755E-03 -0.52183399563E-02  0.50000500000E+01  0.50000000000E+01 0.  1.
     100001    1    1    2    0    0 -0.21742834835E-01  0.14339263755E-03  0.52183399563E-02  0.50000500000E+01  0.50000000000E+01 0. -1.
</event>
<event>
 4    1  0.4919875E-001  0.5000050E+01  0.7818608E-02  0.2136455E+00
        -11   -1    0    0    0    0  0.00000000000E+00  0.00000000000E+00  0.50000499739E+01  0.50000500000E+01  0.51100000000E-03 0. -1.
         11   -1    0    0    0    0 -0.00000000000E+00 -0.00000000000E+00 -0.50000499739E+01  0.50000500000E+01  0.51100000000E-03 0.  1.
     100001    1    1    2    0    0  0.14112992563E-01 -0.17270966500E-01 -0.15936301552E-02  0.50000500000E+01  0.50000000000E+01 0.  0.
     100001    1    1    2    0    0 -0.14112992563E-01  0.17270966500E-01  0.15936301552E-02  0.50000500000E+01  0.50000000000E+01 0.  1.
</event>
<event>
 4    1  0.4919875E-001  0.5000050E+01  0.7818608E-02  0.2136455E+00
        -11   -1    0    0    0    0  0.00000000000E+00  0.00000000000E+00  0.50000499739E+01  0.50000500000E+01  0.51100000000E-03 0. -1.
         11   -1    0    0    0    0 -0.00000000000E+00 -0.00000000000E+00 -0.50000499739E+01  0.50000500000E+01  0.51100000000E-03 0.  1.
     100001    1    1    2    0    0  0.19515738878E-01 -0.15644082948E-02 -0.10802363757E-01  0.50000500000E+01  0.50000000000E+01 0.  1.
     100001    1    1    2    0    0 -0.19515738878E-01  0.15644082948E-02  0.10802363757E-01  0.50000500000E+01  0.50000000000E+01 0. -1.
</event>
<event>
 4    1  0.4919875E-001  0.5000050E+01  0.7818608E-02  0.2136455E+00
        -11   -1    0    0    0    0  0.00000000000E+00  0.00000000000E+00  0.50000499739E+01  0.50000500000E+01  0.51100000000E-03 0.  1.
         11   -1    0    0    0    0 -0.00000000000E+00 -0.00000000000E+00 -0.50000499739E+01  0.50000500000E+01  0.51100000000E-03 0. -1.
     100001    1    1    2    0    0 -0.19484953744E-01  0.10093834048E-01  0.42957644007E-02  0.50000500000E+01  0.50000000000E+01 0.  1.
     100001    1    1    2    0    0  0.19484953744E-01 -0.10093834048E-01 -0.42957644007E-02  0.50000500000E+01  0.50000000000E+01 0. -1.
</event>
<event>
 4    1  0.4919875E-001  0.5000050E+01  0.7818608E-02  0.2136455E+00
        -11   -1    0    0    0    0  0.00000000000E+00  0.00000000000E+00  0.50000499739E+01  0.50000500000E+01  0.51100000000E-03 0.  1.
         11   -1    0    0    0    0 -0.00000000000E+00 -0.00000000000E+00 -0.50000499739E+01  0.50000500000E+01  0.51100000000E-03 0. -1.
     100001    1    1    2    0    0  0.48754503452E-03  0.21467169237E-01  0.62390259501E-02  0.50000500000E+01  0.50000000000E+01 0. -1.
     100001    1    1    2    0    0 -0.48754503452E-03 -0.21467169237E-01 -0.62390259501E-02  0.50000500000E+01  0.50000000000E+01 0.  0.
</event>
<event>
 4    1  0.4919875E-001  0.5000050E+01  0.7818608E-02  0.2136455E+00
        -11   -1    0    0    0    0  0.00000000000E+00  0.00000000000E+00  0.50000499739E+01  0.50000500000E+01  0.51100000000E-03 0.  1.
         11   -1    0    0    0    0 -0.00000000000E+00 -0.00000000000E+00 -0.50000499739E+01  0.50000500000E+01  0.51100000000E-03 0. -1.
     100001    1    1    2    0    0  0.89875703373E-02  0.13983368635E-01  0.14956319101E-01  0.50000500000E+01  0.50000000000E+01 0.  0.
     100001    1    1    2    0    0 -0.89875703373E-02 -0.13983368635E-01 -0.14956319101E-01  0.50000500000E+01  0.50000000000E+01 0.  0.
</event>
<event>
 4    1  0.4919875E-001  0.5000050E+01  0.7818608E-02  0.2136455E+00
        -11   -1    0    0    0    0  0.00000000000E+00  0.00000000000E+00  0.50000499739E+01  0.50000500000E+01  0.51100000000E-03 0. -1.
         11   -1    0    0    0    0 -0.00000000000E+00 -0.00000000000E+00 -0.50000499739E+01  0.50000500000E+01  0.51100000000E-03 0.  1.
     100001    1    1    2    0    0  0.18009304729E-01 -0.12579515567E-01  0.41741144305E-02  0.50000500000E+01  0.50000000000E+01 0. -1.
     100001    1    1    2    0    0 -0.18009304729E-01  0.12579515567E-01 -0.41741144305E-02  0.50000500000E+01  0.50000000000E+01 0.  0.
</event>
<event>
 4    1  0.4919875E-001  0.5000050E+01  0.7818608E-02  0.2136455E+00
        -11   -1    0    0    0    0  0.00000000000E+00  0.00000000000E+00  0.50000499739E+01  0.50000500000E+01  0.51100000000E-03 0.  1.
         11   -1    0    0    0    0 -0.00000000000E+00 -0.00000000000E+00 -0.50000499739E+01  0.50000500000E+01  0.51100000000E-03 0. -1.
     100001    1    1    2    0    0 -0.75632885196E-02  0.17457216461E-01  0.11749245090E-01  0.50000500000E+01  0.50000000000E+01 0.  0.
     100001    1    1    2    0    0  0.75632885196E-02 -0.17457216461E-01 -0.11749245090E-01  0.50000500000E+01  0.50000000000E+01 0.  0.
</event>
<event>
 4    1  0.4919875E-001  0.5000050E+01  0.7818608E-02  0.2136455E+00
        -11   -1    0    0    0    0  0.00000000000E+00  0.00000000000E+00  0.50000499739E+01  0.50000500000E+01  0.51100000000E-03 0.  1.
         11   -1    0    0    0    0 -0.00000000000E+00 -0.00000000000E+00 -0.50000499739E+01  0.50000500000E+01  0.51100000000E-03 0. -1.
     100001    1    1    2    0    0  0.18110876941E-01  0.10999973469E-01 -0.71413738245E-02  0.50000500000E+01  0.50000000000E+01 0.  0.
     100001    1    1    2    0    0 -0.18110876941E-01 -0.10999973469E-01  0.71413738245E-02  0.50000500000E+01  0.50000000000E+01 0. -1.
</event>
<event>
 4    1  0.4919875E-001  0.5000050E+01  0.7818608E-02  0.2136455E+00
        -11   -1    0    0    0    0  0.00000000000E+00  0.00000000000E+00  0.50000499739E+01  0.50000500000E+01  0.51100000000E-03 0. -1.
         11   -1    0    0    0    0 -0.00000000000E+00 -0.00000000000E+00 -0.50000499739E+01  0.50000500000E+01  0.51100000000E-03 0.  1.
     100001    1    1    2    0    0 -0.20108574146E-02 -0.16127528977E-01 -0.15357791559E-01  0.50000500000E+01  0.50000000000E+01 0.  1.
     100001    1    1    2    0    0  0.20108574146E-02  0.16127528977E-01  0.15357791559E-01  0.50000500000E+01  0.50000000000E+01 0. -1.
</event>
<event>
 4    1  0.4919875E-001  0.5000050E+01  0.7818608E-02  0.2136455E+00
        -11   -1    0    0    0    0  0.00000000000E+00  0.00000000000E+00  0.50000499739E+01  0.50000500000E+01  0.51100000000E-03 0.  1.
         11   -1    0    0    0    0 -0.00000000000E+00 -0.00000000000E+00 -0.50000499739E+01  0.50000500000E+01  0.51100000000E-03 0. -1.
     100001    1    1    2    0    0 -0.91886283213E-02 -0.19635721508E-01 -0.54781429719E-02  0.50000500000E+01  0.50000000000E+01 0. -1.
     100001    1    1    2    0    0  0.91886283213E-02  0.19635721508E-01  0.54781429719E-02  0.50000500000E+01  0.50000000000E+01 0.  0.
</event>
<event>
 4    1  0.4919875E-001  0.5000050E+01  0.7818608E-02  0.2136455E+00
        -11   -1    0    0    0    0  0.00000000000E+00  0.00000000000E+00  0.50000499739E+01  0.50000500000E+01  0.51100000000E-03 0. -1.
         11   -1    0    0    0    0 -0.00000000000E+00 -0.00000000000E+00 -0.50000499739E+01  0.50000500000E+01  0.51100000000E-03 0.  1.
     100001    1    1    2    0    0  0.15928307780E-01 -0.11708523181E-01 -0.10449975893E-01  0.50000500000E+01  0.50000000000E+01 0.  1.
     100001    1    1    2    0    0 -0.15928307780E-01  0.11708523181E-01  0.10449975893E-01  0.50000500000E+01  0.50000000000E+01 0. -1.
</event>
<event>
 4    1  0.4919875E-001  0.5000050E+01  0.7818608E-02  0.2136455E+00
        -11   -1    0    0    0    0  0.00000000000E+00  0.00000000000E+00  0.50000499739E+01  0.50000500000E+01  0.51100000000E-03 0. -1.
         11   -1    0    0    0    0 -0.00000000000E+00 -0.00000000000E+00 -0.50000499739E+01  0.50000500000E+01  0.51100000000E-03 0.  1.
     100001    1    1    2    0    0 -0.28563881098E-02  0.49167754358E-02  0.21625652968E-01  0.50000500000E+01  0.50000000000E+01 0.  0.
     100001    1    1    2    0    0  0.28563881098E-02 -0.49167754358E-02 -0.21625652968E-01  0.50000500000E+01  0.50000000000E+01 0.  1.
</event>
<event>
 4    1  0.4919875E-001  0.5000050E+01  0.7818608E-02  0.2136455E+00
        -11   -1    0    0    0    0  0.00000000000E+00  0.00000000000E+00  0.50000499739E+01  0.50000500000E+01  0.51100000000E-03 0.  1.
         11   -1    0    0    0    0 -0.00000000000E+00 -0.00000000000E+00 -0.50000499739E+01  0.50000500000E+01  0.51100000000E-03 0. -1.
     100001    1    1    2    0    0 -0.15480886080E-01 -0.14709685203E-01 -0.66309748456E-02  0.50000500000E+01  0.50000000000E+01 0. -1.
     100001    1    1    2    0    0  0.15480886080E-01  0.14709685203E-01  0.66309748456E-02  0.50000500000E+01  0.50000000000E+01 0.  1.
</event>
<event>
 4    1  0.4919875E-001  0.5000050E+01  0.7818608E-02  0.2136455E+00
        -11   -1    0    0    0    0  0.00000000000E+00  0.00000000000E+00  0.50000499739E+01  0.50000500000E+01  0.51100000000E-03 0. -1.
         11   -1    0    0    0    0 -0.00000000000E+00 -0.00000000000E+00 -0.50000499739E+01  0.50000500000E+01  0.51100000000E-03 0.  1.
     100001    1    1    2    0    0  0.88662440707E-02  0.93236511262E-02  0.18288295321E-01  0.50000500000E+01  0.50000000000E+01 0.  0.
     100001    1    1    2    0    0 -0.88662440707E-02 -0.93236511262E-02 -0.18288295321E-01  0.50000500000E+01  0.50000000000E+01 0.  0.
</event>
<event>
 4    1  0.4919875E-001  0.5000050E+01  0.7818608E-02  0.2136455E+00
        -11   -1    0    0    0    0  0.00000000000E+00  0.00000000000E+00  0.50000499739E+01  0.50000500000E+01  0.51100000000E-03 0.  1.
         11   -1    0    0    0    0 -0.00000000000E+00 -0.00000000000E+00 -0.50000499739E+01  0.50000500000E+01  0.51100000000E-03 0. -1.
     100001    1    1    2    0    0 -0.10396011399E-01  0.24722038376E-02 -0.19642139781E-01  0.50000500000E+01  0.50000000000E+01 0. -1.
     100001    1    1    2    0    0  0.10396011399E-01 -0.24722038376E-02  0.19642139781E-01  0.50000500000E+01  0.50000000000E+01 0. -1.
</event>
<event>
 4    1  0.4919875E-001  0.5000050E+01  0.7818608E-02  0.2136455E+00
        -11   -1    0    0    0    0  0.00000000000E+00  0.00000000000E+00  0.50000499739E+01  0.50000500000E+01  0.51100000000E-03 0. -1.
         11   -1    0    0    0    0 -0.00000000000E+00 -0.00000000000E+00 -0.50000499739E+01  0.50000500000E+01  0.51100000000E-03 0.  1.
     100001    1    1    2    0    0  0.38264367770E-02  0.22025540035E-01 -0.48627950569E-03  0.50000500000E+01  0.50000000000E+01 0.  1.
     100001    1    1    2    0    0 -0.38264367770E-02 -0.22025540035E-01  0.48627950569E-03  0.50000500000E+01  0.50000000000E+01 0. -1.
</event>
<event>
 4    1  0.4919875E-001  0.5000050E+01  0.7818608E-02  0.2136455E+00
        -11   -1    0    0    0    0  0.00000000000E+00  0.00000000000E+00  0.50000499739E+01  0.50000500000E+01  0.51100000000E-03 0. -1.
         11   -1    0    0    0    0 -0.00000000000E+00 -0.00000000000E+00 -0.50000499739E+01  0.50000500000E+01  0.51100000000E-03 0.  1.
     100001    1    1    2    0    0  0.16476059781E-01  0.14258694236E-01 -0.50231058900E-02  0.50000500000E+01  0.50000000000E+01 0.  1.
     100001    1    1    2    0    0 -0.16476059781E-01 -0.14258694236E-01  0.50231058900E-02  0.50000500000E+01  0.50000000000E+01 0. -1.
</event>
<event>
 4    1  0.4919875E-001  0.5000050E+01  0.7818608E-02  0.2136455E+00
        -11   -1    0    0    0    0  0.00000000000E+00  0.00000000000E+00  0.50000499739E+01  0.50000500000E+01  0.51100000000E-03 0.  1.
         11   -1    0    0    0    0 -0.00000000000E+00 -0.00000000000E+00 -0.50000499739E+01  0.50000500000E+01  0.51100000000E-03 0. -1.
     100001    1    1    2    0    0 -0.12412769091E-01 -0.18296600849E-01  0.33406677261E-02  0.50000500000E+01  0.50000000000E+01 0. -1.
     100001    1    1    2    0    0  0.12412769091E-01  0.18296600849E-01 -0.33406677261E-02  0.50000500000E+01  0.50000000000E+01 0.  1.
</event>
<event>
 4    1  0.4919875E-001  0.5000050E+01  0.7818608E-02  0.2136455E+00
        -11   -1    0    0    0    0  0.00000000000E+00  0.00000000000E+00  0.50000499739E+01  0.50000500000E+01  0.51100000000E-03 0. -1.
         11   -1    0    0    0    0 -0.00000000000E+00 -0.00000000000E+00 -0.50000499739E+01  0.50000500000E+01  0.51100000000E-03 0.  1.
     100001    1    1    2    0    0 -0.19997108753E-01 -0.11230039160E-02 -0.99426859404E-02  0.50000500000E+01  0.50000000000E+01 0.  0.
     100001    1    1    2    0    0  0.19997108753E-01  0.11230039160E-02  0.99426859404E-02  0.50000500000E+01  0.50000000000E+01 0.  1.
</event>
<event>
 4    1  0.4919875E-001  0.5000050E+01  0.7818608E-02  0.2136455E+00
        -11   -1    0    0    0    0  0.00000000000E+00  0.00000000000E+00  0.50000499739E+01  0.50000500000E+01  0.51100000000E-03 0. -1.
         11   -1    0    0    0    0 -0.00000000000E+00 -0.00000000000E+00 -0.50000499739E+01  0.50000500000E+01  0.51100000000E-03 0.  1.
     100001    1    1    2    0    0 -0.17400110999E-01 -0.50245342228E-02  0.13114598471E-01  0.50000500000E+01  0.50000000000E+01 0. -1.
     100001    1    1    2    0    0  0.17400110999E-01  0.50245342228E-02 -0.13114598471E-01  0.50000500000E+01  0.50000000000E+01 0.  1.
</event>
<event>
 4    1  0.4919875E-001  0.5000050E+01  0.7818608E-02  0.2136455E+00
        -11   -1    0    0    0    0  0.00000000000E+00  0.00000000000E+00  0.50000499739E+01  0.50000500000E+01  0.51100000000E-03 0. -1.
         11   -1    0    0    0    0 -0.00000000000E+00 -0.00000000000E+00 -0.50000499739E+01  0.50000500000E+01  0.51100000000E-03 0.  1.
     100001    1    1    2    0    0  0.20606758491E-01  0.46741403656E-02 -0.73154915310E-02  0.50000500000E+01  0.50000000000E+01 0.  1.
     100001    1    1    2    0    0 -0.20606758491E-01 -0.46741403656E-02  0.73154915310E-02  0.50000500000E+01  0.50000000000E+01 0. -1.
</event>
<event>
 4    1  0.4919875E-001  0.5000050E+01  0.7818608E-02  0.2136455E+00
        -11   -1    0    0    0    0  0.00000000000E+00  0.00000000000E+00  0.50000499739E+01  0.50000500000E+01  0.51100000000E-03 0.  1.
         11   -1    0    0    0    0 -0.00000000000E+00 -0.00000000000E+00 -0.50000499739E+01  0.50000500000E+01  0.51100000000E-03 0. -1.
     100001    1    1    2    0    0 -0.58677846637E-02 -0.20157365925E-01 -0.76975451987E-02  0.50000500000E+01  0.50000000000E+01 0.  1.
     100001    1    1    2    0    0  0.58677846637E-02  0.20157365925E-01  0.76975451987E-02  0.50000500000E+01  0.50000000000E+01 0.  0.
</event>
<event>
 4    1  0.4919875E-001  0.5000050E+01  0.7818608E-02  0.2136455E+00
        -11   -1    0    0    0    0  0.00000000000E+00  0.00000000000E+00  0.50000499739E+01  0.50000500000E+01  0.51100000000E-03 0. -1.
         11   -1    0    0    0    0 -0.00000000000E+00 -0.00000000000E+00 -0.50000499739E+01  0.50000500000E+01  0.51100000000E-03 0.  1.
     100001    1    1    2    0    0 -0.19956782820E-01 -0.28755325400E-02  0.96675039219E-02  0.50000500000E+01  0.50000000000E+01 0.  0.
     100001    1    1    2    0    0  0.19956782820E-01  0.28755325400E-02 -0.96675039219E-02  0.50000500000E+01  0.50000000000E+01 0.  0.
</event>
<event>
 4    1  0.4919875E-001  0.5000050E+01  0.7818608E-02  0.2136455E+00
        -11   -1    0    0    0    0  0.00000000000E+00  0.00000000000E+00  0.50000499739E+01  0.50000500000E+01  0.51100000000E-03 0.  1.
         11   -1    0    0    0    0 -0.00000000000E+00 -0.00000000000E+00 -0.50000499739E+01  0.50000500000E+01  0.51100000000E-03 0. -1.
     100001    1    1    2    0    0 -0.16577617977E-01 -0.12505074280E-02  0.14953973163E-01  0.50000500000E+01  0.50000000000E+01 0.  1.
     100001    1    1    2    0    0  0.16577617977E-01  0.12505074280E-02 -0.14953973163E-01  0.50000500000E+01  0.50000000000E+01 0. -1.
</event>
<event>
 4    1  0.4919875E-001  0.5000050E+01  0.7818608E-02  0.2136455E+00
        -11   -1    0    0    0    0  0.00000000000E+00  0.00000000000E+00  0.50000499739E+01  0.50000500000E+01  0.51100000000E-03 0. -1.
         11   -1    0    0    0    0 -0.00000000000E+00 -0.00000000000E+00 -0.50000499739E+01  0.50000500000E+01  0.51100000000E-03 0.  1.
     100001    1    1    2    0    0  0.92227862773E-02  0.13736170486E-01  0.15041952455E-01  0.50000500000E+01  0.50000000000E+01 0. -1.
     100001    1    1    2    0    0 -0.92227862773E-02 -0.13736170486E-01 -0.15041952455E-01  0.50000500000E+01  0.50000000000E+01 0.  1.
</event>
<event>
 4    1  0.4919875E-001  0.5000050E+01  0.7818608E-02  0.2136455E+00
        -11   -1    0    0    0    0  0.00000000000E+00  0.00000000000E+00  0.50000499739E+01  0.50000500000E+01  0.51100000000E-03 0.  1.
         11   -1    0    0    0    0 -0.00000000000E+00 -0.00000000000E+00 -0.50000499739E+01  0.50000500000E+01  0.51100000000E-03 0. -1.
     100001    1    1    2    0    0  0.16644537805E-01 -0.96152720664E-02 -0.11424027501E-01  0.50000500000E+01  0.50000000000E+01 0. -1.
     100001    1    1    2    0    0 -0.16644537805E-01  0.96152720664E-02  0.11424027501E-01  0.50000500000E+01  0.50000000000E+01 0. -1.
</event>
<event>
 4    1  0.4919875E-001  0.5000050E+01  0.7818608E-02  0.2136455E+00
        -11   -1    0    0    0    0  0.00000000000E+00  0.00000000000E+00  0.50000499739E+01  0.50000500000E+01  0.51100000000E-03 0. -1.
         11   -1    0    0    0    0 -0.00000000000E+00 -0.00000000000E+00 -0.50000499739E+01  0.50000500000E+01  0.51100000000E-03 0.  1.
     100001    1    1    2    0    0  0.20119132946E-01 -0.91455928611E-02  0.34031045677E-02  0.50000500000E+01  0.50000000000E+01 0. -1.
     100001    1    1    2    0    0 -0.20119132946E-01  0.91455928611E-02 -0.34031045677E-02  0.50000500000E+01  0.50000000000E+01 0.  0.
</event>
<event>
 4    1  0.4919875E-001  0.5000050E+01  0.7818608E-02  0.2136455E+00
        -11   -1    0    0    0    0  0.00000000000E+00  0.00000000000E+00  0.50000499739E+01  0.50000500000E+01  0.51100000000E-03 0. -1.
         11   -1    0    0    0    0 -0.00000000000E+00 -0.00000000000E+00 -0.50000499739E+01  0.50000500000E+01  0.51100000000E-03 0.  1.
     100001    1    1    2    0    0  0.91900914736E-02  0.83974529359E-02 -0.18574915959E-01  0.50000500000E+01  0.50000000000E+01 0. -1.
     100001    1    1    2    0    0 -0.91900914736E-02 -0.83974529359E-02  0.18574915959E-01  0.50000500000E+01  0.50000000000E+01 0. -1.
</event>
<event>
 4    1  0.4919875E-001  0.5000050E+01  0.7818608E-02  0.2136455E+00
        -11   -1    0    0    0    0  0.00000000000E+00  0.00000000000E+00  0.50000499739E+01  0.50000500000E+01  0.51100000000E-03 0.  1.
         11   -1    0    0    0    0 -0.00000000000E+00 -0.00000000000E+00 -0.50000499739E+01  0.50000500000E+01  0.51100000000E-03 0. -1.
     100001    1    1    2    0    0 -0.16280930632E-02  0.74528522549E-02  0.21019200894E-01  0.50000500000E+01  0.50000000000E+01 0.  1.
     100001    1    1    2    0    0  0.16280930632E-02 -0.74528522549E-02 -0.21019200894E-01  0.50000500000E+01  0.50000000000E+01 0.  0.
</event>
<event>
 4    1  0.4919875E-001  0.5000050E+01  0.7818608E-02  0.2136455E+00
        -11   -1    0    0    0    0  0.00000000000E+00  0.00000000000E+00  0.50000499739E+01  0.50000500000E+01  0.51100000000E-03 0.  1.
         11   -1    0    0    0    0 -0.00000000000E+00 -0.00000000000E+00 -0.50000499739E+01  0.50000500000E+01  0.51100000000E-03 0. -1.
     100001    1    1    2    0    0 -0.12292832888E-01  0.17334665411E-01  0.69568767895E-02  0.50000500000E+01  0.50000000000E+01 0.  0.
     100001    1    1    2    0    0  0.12292832888E-01 -0.17334665411E-01 -0.69568767895E-02  0.50000500000E+01  0.50000000000E+01 0.  0.
</event>
<event>
 4    1  0.4919875E-001  0.5000050E+01  0.7818608E-02  0.2136455E+00
        -11   -1    0    0    0    0  0.00000000000E+00  0.00000000000E+00  0.50000499739E+01  0.50000500000E+01  0.51100000000E-03 0. -1.
         11   -1    0    0    0    0 -0.00000000000E+00 -0.00000000000E+00 -0.50000499739E+01  0.50000500000E+01  0.51100000000E-03 0.  1.
     100001    1    1    2    0    0  0.11670327106E-01 -0.10443768163E-01 -0.15960378185E-01  0.50000500000E+01  0.50000000000E+01 0.  0.
     100001    1    1    2    0    0 -0.11670327106E-01  0.10443768163E-01  0.15960378185E-01  0.50000500000E+01  0.50000000000E+01 0.  0.
</event>
<event>
 4    1  0.4919875E-001  0.5000050E+01  0.7818608E-02  0.2136455E+00
        -11   -1    0    0    0    0  0.00000000000E+00  0.00000000000E+00  0.50000499739E+01  0.50000500000E+01  0.51100000000E-03 0.  1.
         11   -1    0    0    0    0 -0.00000000000E+00 -0.00000000000E+00 -0.50000499739E+01  0.50000500000E+01  0.51100000000E-03 0. -1.
     100001    1    1    2    0    0  0.12913040283E-02 -0.10640017855E-01 -0.19624603281E-01  0.50000500000E+01  0.50000000000E+01 0. -1.
     100001    1    1    2    0    0 -0.12913040283E-02  0.10640017855E-01  0.19624603281E-01  0.50000500000E+01  0.50000000000E+01 0.  0.
</event>
<event>
 4    1  0.4919875E-001  0.5000050E+01  0.7818608E-02  0.2136455E+00
        -11   -1    0    0    0    0  0.00000000000E+00  0.00000000000E+00  0.50000499739E+01  0.50000500000E+01  0.51100000000E-03 0. -1.
         11   -1    0    0    0    0 -0.00000000000E+00 -0.00000000000E+00 -0.50000499739E+01  0.50000500000E+01  0.51100000000E-03 0.  1.
     100001    1    1    2    0    0 -0.11037340058E-01  0.12943214266E-01  0.14513884005E-01  0.50000500000E+01  0.50000000000E+01 0. -1.
     100001    1    1    2    0    0  0.11037340058E-01 -0.12943214266E-01 -0.14513884005E-01  0.50000500000E+01  0.50000000000E+01 0.  1.
</event>
<event>
 4    1  0.4919875E-001  0.5000050E+01  0.7818608E-02  0.2136455E+00
        -11   -1    0    0    0    0  0.00000000000E+00  0.00000000000E+00  0.50000499739E+01  0.50000500000E+01  0.51100000000E-03 0. -1.
         11   -1    0    0    0    0 -0.00000000000E+00 -0.00000000000E+00 -0.50000499739E+01  0.50000500000E+01  0.51100000000E-03 0.  1.
     100001    1    1    2    0    0 -0.61574326081E-02  0.98045132292E-02  0.19130082175E-01  0.50000500000E+01  0.50000000000E+01 0.  0.
     100001    1    1    2    0    0  0.61574326081E-02 -0.98045132292E-02 -0.19130082175E-01  0.50000500000E+01  0.50000000000E+01 0.  1.
</event>
<event>
 4    1  0.4919875E-001  0.5000050E+01  0.7818608E-02  0.2136455E+00
        -11   -1    0    0    0    0  0.00000000000E+00  0.00000000000E+00  0.50000499739E+01  0.50000500000E+01  0.51100000000E-03 0. -1.
         11   -1    0    0    0    0 -0.00000000000E+00 -0.00000000000E+00 -0.50000499739E+01  0.50000500000E+01  0.51100000000E-03 0.  1.
     100001    1    1    2    0    0  0.10091635660E-02  0.12300643822E-01  0.18646132319E-01  0.50000500000E+01  0.50000000000E+01 0. -1.
     100001    1    1    2    0    0 -0.10091635660E-02 -0.12300643822E-01 -0.18646132319E-01  0.50000500000E+01  0.50000000000E+01 0.  0.
</event>
<event>
 4    1  0.4919875E-001  0.5000050E+01  0.7818608E-02  0.2136455E+00
        -11   -1    0    0    0    0  0.00000000000E+00  0.00000000000E+00  0.50000499739E+01  0.50000500000E+01  0.51100000000E-03 0.  1.
         11   -1    0    0    0    0 -0.00000000000E+00 -0.00000000000E+00 -0.50000499739E+01  0.50000500000E+01  0.51100000000E-03 0. -1.
     100001    1    1    2    0    0 -0.14629858435E-01 -0.58200013300E-02 -0.15877573073E-01  0.50000500000E+01  0.50000000000E+01 0.  0.
     100001    1    1    2    0    0  0.14629858435E-01  0.58200013300E-02  0.15877573073E-01  0.50000500000E+01  0.50000000000E+01 0.  0.
</event>
<event>
 4    1  0.4919875E-001  0.5000050E+01  0.7818608E-02  0.2136455E+00
        -11   -1    0    0    0    0  0.00000000000E+00  0.00000000000E+00  0.50000499739E+01  0.50000500000E+01  0.51100000000E-03 0. -1.
         11   -1    0    0    0    0 -0.00000000000E+00 -0.00000000000E+00 -0.50000499739E+01  0.50000500000E+01  0.51100000000E-03 0.  1.
     100001    1    1    2    0    0  0.80639100172E-02 -0.14767339090E-01  0.14727577921E-01  0.50000500000E+01  0.50000000000E+01 0. -1.
     100001    1    1    2    0    0 -0.80639100172E-02  0.14767339090E-01 -0.14727577921E-01  0.50000500000E+01  0.50000000000E+01 0.  1.
</event>
<event>
 4    1  0.4919875E-001  0.5000050E+01  0.7818608E-02  0.2136455E+00
        -11   -1    0    0    0    0  0.00000000000E+00  0.00000000000E+00  0.50000499739E+01  0.50000500000E+01  0.51100000000E-03 0.  1.
         11   -1    0    0    0    0 -0.00000000000E+00 -0.00000000000E+00 -0.50000499739E+01  0.50000500000E+01  0.51100000000E-03 0. -1.
     100001    1    1    2    0    0 -0.20421436968E-01 -0.65180881424E-02  0.63625418770E-02  0.50000500000E+01  0.50000000000E+01 0.  1.
     100001    1    1    2    0    0  0.20421436968E-01  0.65180881424E-02 -0.63625418770E-02  0.50000500000E+01  0.50000000000E+01 0. -1.
</event>
<event>
 4    1  0.4919875E-001  0.5000050E+01  0.7818608E-02  0.2136455E+00
        -11   -1    0    0    0    0  0.00000000000E+00  0.00000000000E+00  0.50000499739E+01  0.50000500000E+01  0.51100000000E-03 0. -1.
         11   -1    0    0    0    0 -0.00000000000E+00 -0.00000000000E+00 -0.50000499739E+01  0.50000500000E+01  0.51100000000E-03 0.  1.
     100001    1    1    2    0    0 -0.15347931289E-01 -0.16236679387E-01 -0.90207961004E-03  0.50000500000E+01  0.50000000000E+01 0.  0.
     100001    1    1    2    0    0  0.15347931289E-01  0.16236679387E-01  0.90207961004E-03  0.50000500000E+01  0.50000000000E+01 0.  1.
</event>
<event>
 4    1  0.4919875E-001  0.5000050E+01  0.7818608E-02  0.2136455E+00
        -11   -1    0    0    0    0  0.00000000000E+00  0.00000000000E+00  0.50000499739E+01  0.50000500000E+01  0.51100000000E-03 0. -1.
         11   -1    0    0    0    0 -0.00000000000E+00 -0.00000000000E+00 -0.50000499739E+01  0.50000500000E+01  0.51100000000E-03 0.  1.
     100001    1    1    2    0    0  0.24607090757E-02  0.94200719999E-03 -0.22204955151E-01  0.50000500000E+01  0.50000000000E+01 0.  0.
     100001    1    1    2    0    0 -0.24607090757E-02 -0.94200719999E-03  0.22204955151E-01  0.50000500000E+01  0.50000000000E+01 0. -1.
</event>
<event>
 4    1  0.4919875E-001  0.5000050E+01  0.7818608E-02  0.2136455E+00
        -11   -1    0    0    0    0  0.00000000000E+00  0.00000000000E+00  0.50000499739E+01  0.50000500000E+01  0.51100000000E-03 0.  1.
         11   -1    0    0    0    0 -0.00000000000E+00 -0.00000000000E+00 -0.50000499739E+01  0.50000500000E+01  0.51100000000E-03 0. -1.
     100001    1    1    2    0    0  0.20892157055E-01 -0.67125613617E-02 -0.42967189311E-02  0.50000500000E+01  0.50000000000E+01 0. -1.
     100001    1    1    2    0    0 -0.20892157055E-01  0.67125613617E-02  0.42967189311E-02  0.50000500000E+01  0.50000000000E+01 0.  1.
</event>
<event>
 4    1  0.4919875E-001  0.5000050E+01  0.7818608E-02  0.2136455E+00
        -11   -1    0    0    0    0  0.00000000000E+00  0.00000000000E+00  0.50000499739E+01  0.50000500000E+01  0.51100000000E-03 0. -1.
         11   -1    0    0    0    0 -0.00000000000E+00 -0.00000000000E+00 -0.50000499739E+01  0.50000500000E+01  0.51100000000E-03 0.  1.
     100001    1    1    2    0    0 -0.18070001103E-01  0.12487499108E-01 -0.41880695023E-02  0.50000500000E+01  0.50000000000E+01 0.  1.
     100001    1    1    2    0    0  0.18070001103E-01 -0.12487499108E-01  0.41880695023E-02  0.50000500000E+01  0.50000000000E+01 0. -1.
</event>
<event>
 4    1  0.4919875E-001  0.5000050E+01  0.7818608E-02  0.2136455E+00
        -11   -1    0    0    0    0  0.00000000000E+00  0.00000000000E+00  0.50000499739E+01  0.50000500000E+01  0.51100000000E-03 0.  1.
         11   -1    0    0    0    0 -0.00000000000E+00 -0.00000000000E+00 -0.50000499739E+01  0.50000500000E+01  0.51100000000E-03 0. -1.
     100001    1    1    2    0    0  0.12752014880E-01 -0.14857540335E-01  0.10800097762E-01  0.50000500000E+01  0.50000000000E+01 0.  0.
     100001    1    1    2    0    0 -0.12752014880E-01  0.14857540335E-01 -0.10800097762E-01  0.50000500000E+01  0.50000000000E+01 0.  1.
</event>
<event>
 4    1  0.4919875E-001  0.5000050E+01  0.7818608E-02  0.2136455E+00
        -11   -1    0    0    0    0  0.00000000000E+00  0.00000000000E+00  0.50000499739E+01  0.50000500000E+01  0.51100000000E-03 0. -1.
         11   -1    0    0    0    0 -0.00000000000E+00 -0.00000000000E+00 -0.50000499739E+01  0.50000500000E+01  0.51100000000E-03 0.  1.
     100001    1    1    2    0    0 -0.72308108310E-02  0.20539568219E-01 -0.50837006311E-02  0.50000500000E+01  0.50000000000E+01 0.  1.
     100001    1    1    2    0    0  0.72308108310E-02 -0.20539568219E-01  0.50837006311E-02  0.50000500000E+01  0.50000000000E+01 0. -1.
</event>
<event>
 4    1  0.4919875E-001  0.5000050E+01  0.7818608E-02  0.2136455E+00
        -11   -1    0    0    0    0  0.00000000000E+00  0.00000000000E+00  0.50000499739E+01  0.50000500000E+01  0.51100000000E-03 0.  1.
         11   -1    0    0    0    0 -0.00000000000E+00 -0.00000000000E+00 -0.50000499739E+01  0.50000500000E+01  0.51100000000E-03 0. -1.
     100001    1    1    2    0    0 -0.20609266240E-01 -0.48056651504E-02  0.72226191586E-02  0.50000500000E+01  0.50000000000E+01 0.  1.
     100001    1    1    2    0    0  0.20609266240E-01  0.48056651504E-02 -0.72226191586E-02  0.50000500000E+01  0.50000000000E+01 0. -1.
</event>
<event>
 4    1  0.4919875E-001  0.5000050E+01  0.7818608E-02  0.2136455E+00
        -11   -1    0    0    0    0  0.00000000000E+00  0.00000000000E+00  0.50000499739E+01  0.50000500000E+01  0.51100000000E-03 0. -1.
         11   -1    0    0    0    0 -0.00000000000E+00 -0.00000000000E+00 -0.50000499739E+01  0.50000500000E+01  0.51100000000E-03 0.  1.
     100001    1    1    2    0    0 -0.10082052831E-01 -0.37179410934E-02  0.19609477931E-01  0.50000500000E+01  0.50000000000E+01 0.  0.
     100001    1    1    2    0    0  0.10082052831E-01  0.37179410934E-02 -0.19609477931E-01  0.50000500000E+01  0.50000000000E+01 0.  0.
</event>
<event>
 4    1  0.4919875E-001  0.5000050E+01  0.7818608E-02  0.2136455E+00
        -11   -1    0    0    0    0  0.00000000000E+00  0.00000000000E+00  0.50000499739E+01  0.50000500000E+01  0.51100000000E-03 0.  1.
         11   -1    0    0    0    0 -0.00000000000E+00 -0.00000000000E+00 -0.50000499739E+01  0.50000500000E+01  0.51100000000E-03 0. -1.
     100001    1    1    2    0    0 -0.84464990205E-02 -0.62663623997E-02  0.19733014381E-01  0.50000500000E+01  0.50000000000E+01 0.  0.
     100001    1    1    2    0    0  0.84464990205E-02  0.62663623997E-02 -0.19733014381E-01  0.50000500000E+01  0.50000000000E+01 0.  1.
</event>
<event>
 4    1  0.4919875E-001  0.5000050E+01  0.7818608E-02  0.2136455E+00
        -11   -1    0    0    0    0  0.00000000000E+00  0.00000000000E+00  0.50000499739E+01  0.50000500000E+01  0.51100000000E-03 0. -1.
         11   -1    0    0    0    0 -0.00000000000E+00 -0.00000000000E+00 -0.50000499739E+01  0.50000500000E+01  0.51100000000E-03 0.  1.
     100001    1    1    2    0    0  0.10070958776E-01 -0.19953883650E-01  0.64870377664E-03  0.50000500000E+01  0.50000000000E+01 0. -1.
     100001    1    1    2    0    0 -0.10070958776E-01  0.19953883650E-01 -0.64870377664E-03  0.50000500000E+01  0.50000000000E+01 0.  1.
</event>
<event>
 4    1  0.4919875E-001  0.5000050E+01  0.7818608E-02  0.2136455E+00
        -11   -1    0    0    0    0  0.00000000000E+00  0.00000000000E+00  0.50000499739E+01  0.50000500000E+01  0.51100000000E-03 0.  1.
         11   -1    0    0    0    0 -0.00000000000E+00 -0.00000000000E+00 -0.50000499739E+01  0.50000500000E+01  0.51100000000E-03 0. -1.
     100001    1    1    2    0    0 -0.14804807349E-01 -0.12199677045E-01  0.11488605632E-01  0.50000500000E+01  0.50000000000E+01 0.  0.
     100001    1    1    2    0    0  0.14804807349E-01  0.12199677045E-01 -0.11488605632E-01  0.50000500000E+01  0.50000000000E+01 0.  1.
</event>
<event>
 4    1  0.4919875E-001  0.5000050E+01  0.7818608E-02  0.2136455E+00
        -11   -1    0    0    0    0  0.00000000000E+00  0.00000000000E+00  0.50000499739E+01  0.50000500000E+01  0.51100000000E-03 0. -1.
         11   -1    0    0    0    0 -0.00000000000E+00 -0.00000000000E+00 -0.50000499739E+01  0.50000500000E+01  0.51100000000E-03 0.  1.
     100001    1    1    2    0    0 -0.16112467613E-02  0.21839068278E-01  0.45234368137E-02  0.50000500000E+01  0.50000000000E+01 0.  1.
     100001    1    1    2    0    0  0.16112467613E-02 -0.21839068278E-01 -0.45234368137E-02  0.50000500000E+01  0.50000000000E+01 0.  0.
</event>
<event>
 4    1  0.4919875E-001  0.5000050E+01  0.7818608E-02  0.2136455E+00
        -11   -1    0    0    0    0  0.00000000000E+00  0.00000000000E+00  0.50000499739E+01  0.50000500000E+01  0.51100000000E-03 0. -1.
         11   -1    0    0    0    0 -0.00000000000E+00 -0.00000000000E+00 -0.50000499739E+01  0.50000500000E+01  0.51100000000E-03 0.  1.
     100001    1    1    2    0    0  0.14337573865E-01  0.15930678234E-01  0.63757326386E-02  0.50000500000E+01  0.50000000000E+01 0.  1.
     100001    1    1    2    0    0 -0.14337573865E-01 -0.15930678234E-01 -0.63757326386E-02  0.50000500000E+01  0.50000000000E+01 0.  0.
</event>
<event>
 4    1  0.4919875E-001  0.5000050E+01  0.7818608E-02  0.2136455E+00
        -11   -1    0    0    0    0  0.00000000000E+00  0.00000000000E+00  0.50000499739E+01  0.50000500000E+01  0.51100000000E-03 0.  1.
         11   -1    0    0    0    0 -0.00000000000E+00 -0.00000000000E+00 -0.50000499739E+01  0.50000500000E+01  0.51100000000E-03 0. -1.
     100001    1    1    2    0    0  0.19424031858E-01  0.67905700581E-02  0.87520080365E-02  0.50000500000E+01  0.50000000000E+01 0.  1.
     100001    1    1    2    0    0 -0.19424031858E-01 -0.67905700581E-02 -0.87520080365E-02  0.50000500000E+01  0.50000000000E+01 0. -1.
</event>
<event>
 4    1  0.4919875E-001  0.5000050E+01  0.7818608E-02  0.2136455E+00
        -11   -1    0    0    0    0  0.00000000000E+00  0.00000000000E+00  0.50000499739E+01  0.50000500000E+01  0.51100000000E-03 0. -1.
         11   -1    0    0    0    0 -0.00000000000E+00 -0.00000000000E+00 -0.50000499739E+01  0.50000500000E+01  0.51100000000E-03 0.  1.
     100001    1    1    2    0    0  0.21012392987E-01  0.71033524660E-02  0.28327062519E-02  0.50000500000E+01  0.50000000000E+01 0. -1.
     100001    1    1    2    0    0 -0.21012392987E-01 -0.71033524660E-02 -0.28327062519E-02  0.50000500000E+01  0.50000000000E+01 0.  1.
</event>
<event>
 4    1  0.4919875E-001  0.5000050E+01  0.7818608E-02  0.2136455E+00
        -11   -1    0    0    0    0  0.00000000000E+00  0.00000000000E+00  0.50000499739E+01  0.50000500000E+01  0.51100000000E-03 0. -1.
         11   -1    0    0    0    0 -0.00000000000E+00 -0.00000000000E+00 -0.50000499739E+01  0.50000500000E+01  0.51100000000E-03 0.  1.
     100001    1    1    2    0    0  0.30822643571E-02  0.84862187662E-02  0.20456936170E-01  0.50000500000E+01  0.50000000000E+01 0. -1.
     100001    1    1    2    0    0 -0.30822643571E-02 -0.84862187662E-02 -0.20456936170E-01  0.50000500000E+01  0.50000000000E+01 0.  1.
</event>
<event>
 4    1  0.4919875E-001  0.5000050E+01  0.7818608E-02  0.2136455E+00
        -11   -1    0    0    0    0  0.00000000000E+00  0.00000000000E+00  0.50000499739E+01  0.50000500000E+01  0.51100000000E-03 0. -1.
         11   -1    0    0    0    0 -0.00000000000E+00 -0.00000000000E+00 -0.50000499739E+01  0.50000500000E+01  0.51100000000E-03 0.  1.
     100001    1    1    2    0    0 -0.21791619580E-01  0.50108067369E-02 -0.14011391277E-03  0.50000500000E+01  0.50000000000E+01 0. -1.
     100001    1    1    2    0    0  0.21791619580E-01 -0.50108067369E-02  0.14011391277E-03  0.50000500000E+01  0.50000000000E+01 0.  1.
</event>
<event>
 4    1  0.4919875E-001  0.5000050E+01  0.7818608E-02  0.2136455E+00
        -11   -1    0    0    0    0  0.00000000000E+00  0.00000000000E+00  0.50000499739E+01  0.50000500000E+01  0.51100000000E-03 0. -1.
         11   -1    0    0    0    0 -0.00000000000E+00 -0.00000000000E+00 -0.50000499739E+01  0.50000500000E+01  0.51100000000E-03 0.  1.
     100001    1    1    2    0    0 -0.13702508180E-01 -0.17661588170E-01  0.55863484975E-03  0.50000500000E+01  0.50000000000E+01 0. -1.
     100001    1    1    2    0    0  0.13702508180E-01  0.17661588170E-01 -0.55863484975E-03  0.50000500000E+01  0.50000000000E+01 0.  1.
</event>
<event>
 4    1  0.4919875E-001  0.5000050E+01  0.7818608E-02  0.2136455E+00
        -11   -1    0    0    0    0  0.00000000000E+00  0.00000000000E+00  0.50000499739E+01  0.50000500000E+01  0.51100000000E-03 0. -1.
         11   -1    0    0    0    0 -0.00000000000E+00 -0.00000000000E+00 -0.50000499739E+01  0.50000500000E+01  0.51100000000E-03 0.  1.
     100001    1    1    2    0    0 -0.21272664133E-01 -0.56444220146E-02  0.39518047505E-02  0.50000500000E+01  0.50000000000E+01 0. -1.
     100001    1    1    2    0    0  0.21272664133E-01  0.56444220146E-02 -0.39518047505E-02  0.50000500000E+01  0.50000000000E+01 0.  1.
</event>
<event>
 4    1  0.4919875E-001  0.5000050E+01  0.7818608E-02  0.2136455E+00
        -11   -1    0    0    0    0  0.00000000000E+00  0.00000000000E+00  0.50000499739E+01  0.50000500000E+01  0.51100000000E-03 0.  1.
         11   -1    0    0    0    0 -0.00000000000E+00 -0.00000000000E+00 -0.50000499739E+01  0.50000500000E+01  0.51100000000E-03 0. -1.
     100001    1    1    2    0    0 -0.46224194548E-02 -0.38304856922E-02  0.21539803104E-01  0.50000500000E+01  0.50000000000E+01 0.  1.
     100001    1    1    2    0    0  0.46224194548E-02  0.38304856922E-02 -0.21539803104E-01  0.50000500000E+01  0.50000000000E+01 0.  0.
</event>
<event>
 4    1  0.4919875E-001  0.5000050E+01  0.7818608E-02  0.2136455E+00
        -11   -1    0    0    0    0  0.00000000000E+00  0.00000000000E+00  0.50000499739E+01  0.50000500000E+01  0.51100000000E-03 0.  1.
         11   -1    0    0    0    0 -0.00000000000E+00 -0.00000000000E+00 -0.50000499739E+01  0.50000500000E+01  0.51100000000E-03 0. -1.
     100001    1    1    2    0    0 -0.12540177043E-01  0.18161032193E-01 -0.35949088205E-02  0.50000500000E+01  0.50000000000E+01 0. -1.
     100001    1    1    2    0    0  0.12540177043E-01 -0.18161032193E-01  0.35949088205E-02  0.50000500000E+01  0.50000000000E+01 0.  1.
</event>
<event>
 4    1  0.4919875E-001  0.5000050E+01  0.7818608E-02  0.2136455E+00
        -11   -1    0    0    0    0  0.00000000000E+00  0.00000000000E+00  0.50000499739E+01  0.50000500000E+01  0.51100000000E-03 0.  1.
         11   -1    0    0    0    0 -0.00000000000E+00 -0.00000000000E+00 -0.50000499739E+01  0.50000500000E+01  0.51100000000E-03 0. -1.
     100001    1    1    2    0    0  0.14672789522E-01  0.12934538025E-01 -0.10835565223E-01  0.50000500000E+01  0.50000000000E+01 0.  0.
     100001    1    1    2    0    0 -0.14672789522E-01 -0.12934538025E-01  0.10835565223E-01  0.50000500000E+01  0.50000000000E+01 0. -1.
</event>
<event>
 4    1  0.4919875E-001  0.5000050E+01  0.7818608E-02  0.2136455E+00
        -11   -1    0    0    0    0  0.00000000000E+00  0.00000000000E+00  0.50000499739E+01  0.50000500000E+01  0.51100000000E-03 0.  1.
         11   -1    0    0    0    0 -0.00000000000E+00 -0.00000000000E+00 -0.50000499739E+01  0.50000500000E+01  0.51100000000E-03 0. -1.
     100001    1    1    2    0    0  0.11245356549E-01 -0.10096869731E-01  0.16480220803E-01  0.50000500000E+01  0.50000000000E+01 0. -1.
     100001    1    1    2    0    0 -0.11245356549E-01  0.10096869731E-01 -0.16480220803E-01  0.50000500000E+01  0.50000000000E+01 0. -1.
</event>
<event>
 4    1  0.4919875E-001  0.5000050E+01  0.7818608E-02  0.2136455E+00
        -11   -1    0    0    0    0  0.00000000000E+00  0.00000000000E+00  0.50000499739E+01  0.50000500000E+01  0.51100000000E-03 0.  1.
         11   -1    0    0    0    0 -0.00000000000E+00 -0.00000000000E+00 -0.50000499739E+01  0.50000500000E+01  0.51100000000E-03 0. -1.
     100001    1    1    2    0    0 -0.74480307180E-02  0.21063159888E-01  0.93414879394E-03  0.50000500000E+01  0.50000000000E+01 0.  0.
     100001    1    1    2    0    0  0.74480307180E-02 -0.21063159888E-01 -0.93414879394E-03  0.50000500000E+01  0.50000000000E+01 0. -1.
</event>
<event>
 4    1  0.4919875E-001  0.5000050E+01  0.7818608E-02  0.2136455E+00
        -11   -1    0    0    0    0  0.00000000000E+00  0.00000000000E+00  0.50000499739E+01  0.50000500000E+01  0.51100000000E-03 0.  1.
         11   -1    0    0    0    0 -0.00000000000E+00 -0.00000000000E+00 -0.50000499739E+01  0.50000500000E+01  0.51100000000E-03 0. -1.
     100001    1    1    2    0    0 -0.38841457182E-02  0.13106420538E-01  0.17695695881E-01  0.50000500000E+01  0.50000000000E+01 0.  0.
     100001    1    1    2    0    0  0.38841457182E-02 -0.13106420538E-01 -0.17695695881E-01  0.50000500000E+01  0.50000000000E+01 0.  0.
</event>
<event>
 4    1  0.4919875E-001  0.5000050E+01  0.7818608E-02  0.2136455E+00
        -11   -1    0    0    0    0  0.00000000000E+00  0.00000000000E+00  0.50000499739E+01  0.50000500000E+01  0.51100000000E-03 0. -1.
         11   -1    0    0    0    0 -0.00000000000E+00 -0.00000000000E+00 -0.50000499739E+01  0.50000500000E+01  0.51100000000E-03 0.  1.
     100001    1    1    2    0    0  0.13470776353E-02 -0.17168022966E-01 -0.14263480265E-01  0.50000500000E+01  0.50000000000E+01 0.  1.
     100001    1    1    2    0    0 -0.13470776353E-02  0.17168022966E-01  0.14263480265E-01  0.50000500000E+01  0.50000000000E+01 0. -1.
</event>
<event>
 4    1  0.4919875E-001  0.5000050E+01  0.7818608E-02  0.2136455E+00
        -11   -1    0    0    0    0  0.00000000000E+00  0.00000000000E+00  0.50000499739E+01  0.50000500000E+01  0.51100000000E-03 0. -1.
         11   -1    0    0    0    0 -0.00000000000E+00 -0.00000000000E+00 -0.50000499739E+01  0.50000500000E+01  0.51100000000E-03 0.  1.
     100001    1    1    2    0    0  0.20407559027E-01  0.91396712490E-02 -0.21072149359E-04  0.50000500000E+01  0.50000000000E+01 0.  1.
     100001    1    1    2    0    0 -0.20407559027E-01 -0.91396712490E-02  0.21072149359E-04  0.50000500000E+01  0.50000000000E+01 0. -1.
</event>
<event>
 4    1  0.4919875E-001  0.5000050E+01  0.7818608E-02  0.2136455E+00
        -11   -1    0    0    0    0  0.00000000000E+00  0.00000000000E+00  0.50000499739E+01  0.50000500000E+01  0.51100000000E-03 0.  1.
         11   -1    0    0    0    0 -0.00000000000E+00 -0.00000000000E+00 -0.50000499739E+01  0.50000500000E+01  0.51100000000E-03 0. -1.
     100001    1    1    2    0    0  0.20464491264E-01  0.90106893568E-02 -0.12072538213E-03  0.50000500000E+01  0.50000000000E+01 0.  0.
     100001    1    1    2    0    0 -0.20464491264E-01 -0.90106893568E-02  0.12072538213E-03  0.50000500000E+01  0.50000000000E+01 0. -1.
</event>
<event>
 4    1  0.4919875E-001  0.5000050E+01  0.7818608E-02  0.2136455E+00
        -11   -1    0    0    0    0  0.00000000000E+00  0.00000000000E+00  0.50000499739E+01  0.50000500000E+01  0.51100000000E-03 0.  1.
         11   -1    0    0    0    0 -0.00000000000E+00 -0.00000000000E+00 -0.50000499739E+01  0.50000500000E+01  0.51100000000E-03 0. -1.
     100001    1    1    2    0    0  0.10440838397E-01  0.11558336056E-02 -0.19739692050E-01  0.50000500000E+01  0.50000000000E+01 0. -1.
     100001    1    1    2    0    0 -0.10440838397E-01 -0.11558336056E-02  0.19739692050E-01  0.50000500000E+01  0.50000000000E+01 0.  0.
</event>
<event>
 4    1  0.4919875E-001  0.5000050E+01  0.7818608E-02  0.2136455E+00
        -11   -1    0    0    0    0  0.00000000000E+00  0.00000000000E+00  0.50000499739E+01  0.50000500000E+01  0.51100000000E-03 0. -1.
         11   -1    0    0    0    0 -0.00000000000E+00 -0.00000000000E+00 -0.50000499739E+01  0.50000500000E+01  0.51100000000E-03 0.  1.
     100001    1    1    2    0    0  0.31912914102E-02  0.20435507974E-01 -0.84975392315E-02  0.50000500000E+01  0.50000000000E+01 0.  1.
     100001    1    1    2    0    0 -0.31912914102E-02 -0.20435507974E-01  0.84975392315E-02  0.50000500000E+01  0.50000000000E+01 0. -1.
</event>
<event>
 4    1  0.4919875E-001  0.5000050E+01  0.7818608E-02  0.2136455E+00
        -11   -1    0    0    0    0  0.00000000000E+00  0.00000000000E+00  0.50000499739E+01  0.50000500000E+01  0.51100000000E-03 0.  1.
         11   -1    0    0    0    0 -0.00000000000E+00 -0.00000000000E+00 -0.50000499739E+01  0.50000500000E+01  0.51100000000E-03 0. -1.
     100001    1    1    2    0    0  0.48885935567E-02 -0.20245849631E-01  0.81369358946E-02  0.50000500000E+01  0.50000000000E+01 0.  1.
     100001    1    1    2    0    0 -0.48885935567E-02  0.20245849631E-01 -0.81369358946E-02  0.50000500000E+01  0.50000000000E+01 0.  1.
</event>
<event>
 4    1  0.4919875E-001  0.5000050E+01  0.7818608E-02  0.2136455E+00
        -11   -1    0    0    0    0  0.00000000000E+00  0.00000000000E+00  0.50000499739E+01  0.50000500000E+01  0.51100000000E-03 0.  1.
         11   -1    0    0    0    0 -0.00000000000E+00 -0.00000000000E+00 -0.50000499739E+01  0.50000500000E+01  0.51100000000E-03 0. -1.
     100001    1    1    2    0    0  0.10010335567E-01  0.12231384249E-01  0.15817361386E-01  0.50000500000E+01  0.50000000000E+01 0.  1.
     100001    1    1    2    0    0 -0.10010335567E-01 -0.12231384249E-01 -0.15817361386E-01  0.50000500000E+01  0.50000000000E+01 0. -1.
</event>
<event>
 4    1  0.4919875E-001  0.5000050E+01  0.7818608E-02  0.2136455E+00
        -11   -1    0    0    0    0  0.00000000000E+00  0.00000000000E+00  0.50000499739E+01  0.50000500000E+01  0.51100000000E-03 0.  1.
         11   -1    0    0    0    0 -0.00000000000E+00 -0.00000000000E+00 -0.50000499739E+01  0.50000500000E+01  0.51100000000E-03 0. -1.
     100001    1    1    2    0    0 -0.29142322989E-02 -0.15642033714E-01 -0.15711032156E-01  0.50000500000E+01  0.50000000000E+01 0.  0.
     100001    1    1    2    0    0  0.29142322989E-02  0.15642033714E-01  0.15711032156E-01  0.50000500000E+01  0.50000000000E+01 0.  0.
</event>
<event>
 4    1  0.4919875E-001  0.5000050E+01  0.7818608E-02  0.2136455E+00
        -11   -1    0    0    0    0  0.00000000000E+00  0.00000000000E+00  0.50000499739E+01  0.50000500000E+01  0.51100000000E-03 0.  1.
         11   -1    0    0    0    0 -0.00000000000E+00 -0.00000000000E+00 -0.50000499739E+01  0.50000500000E+01  0.51100000000E-03 0. -1.
     100001    1    1    2    0    0  0.21066312541E-01 -0.71195832777E-02 -0.23504275933E-02  0.50000500000E+01  0.50000000000E+01 0.  0.
     100001    1    1    2    0    0 -0.21066312541E-01  0.71195832777E-02  0.23504275933E-02  0.50000500000E+01  0.50000000000E+01 0.  1.
</event>
<event>
 4    1  0.4919875E-001  0.5000050E+01  0.7818608E-02  0.2136455E+00
        -11   -1    0    0    0    0  0.00000000000E+00  0.00000000000E+00  0.50000499739E+01  0.50000500000E+01  0.51100000000E-03 0.  1.
         11   -1    0    0    0    0 -0.00000000000E+00 -0.00000000000E+00 -0.50000499739E+01  0.50000500000E+01  0.51100000000E-03 0. -1.
     100001    1    1    2    0    0 -0.95623755692E-02  0.10496811958E-02  0.20185679153E-01  0.50000500000E+01  0.50000000000E+01 0.  0.
     100001    1    1    2    0    0  0.95623755692E-02 -0.10496811958E-02 -0.20185679153E-01  0.50000500000E+01  0.50000000000E+01 0. -1.
</event>
<event>
 4    1  0.4919875E-001  0.5000050E+01  0.7818608E-02  0.2136455E+00
        -11   -1    0    0    0    0  0.00000000000E+00  0.00000000000E+00  0.50000499739E+01  0.50000500000E+01  0.51100000000E-03 0. -1.
         11   -1    0    0    0    0 -0.00000000000E+00 -0.00000000000E+00 -0.50000499739E+01  0.50000500000E+01  0.51100000000E-03 0.  1.
     100001    1    1    2    0    0 -0.21059086265E-01 -0.74189818146E-02 -0.12149463035E-02  0.50000500000E+01  0.50000000000E+01 0.  0.
     100001    1    1    2    0    0  0.21059086265E-01  0.74189818146E-02  0.12149463035E-02  0.50000500000E+01  0.50000000000E+01 0. -1.
</event>
<event>
 4    1  0.4919875E-001  0.5000050E+01  0.7818608E-02  0.2136455E+00
        -11   -1    0    0    0    0  0.00000000000E+00  0.00000000000E+00  0.50000499739E+01  0.50000500000E+01  0.51100000000E-03 0.  1.
         11   -1    0    0    0    0 -0.00000000000E+00 -0.00000000000E+00 -0.50000499739E+01  0.50000500000E+01  0.51100000000E-03 0. -1.
     100001    1    1    2    0    0  0.17102451215E-01 -0.96554825960E-02 -0.10690197298E-01  0.50000500000E+01  0.50000000000E+01 0. -1.
     100001    1    1    2    0    0 -0.17102451215E-01  0.96554825960E-02  0.10690197298E-01  0.50000500000E+01  0.50000000000E+01 0.  1.
</event>
<event>
 4    1  0.4919875E-001  0.5000050E+01  0.7818608E-02  0.2136455E+00
        -11   -1    0    0    0    0  0.00000000000E+00  0.00000000000E+00  0.50000499739E+01  0.50000500000E+01  0.51100000000E-03 0.  1.
         11   -1    0    0    0    0 -0.00000000000E+00 -0.00000000000E+00 -0.50000499739E+01  0.50000500000E+01  0.51100000000E-03 0. -1.
     100001    1    1    2    0    0  0.97521978975E-02  0.60751316382E-02 -0.19183063148E-01  0.50000500000E+01  0.50000000000E+01 0. -1.
     100001    1    1    2    0    0 -0.97521978975E-02 -0.60751316382E-02  0.19183063148E-01  0.50000500000E+01  0.50000000000E+01 0. -1.
</event>
<event>
 4    1  0.4919875E-001  0.5000050E+01  0.7818608E-02  0.2136455E+00
        -11   -1    0    0    0    0  0.00000000000E+00  0.00000000000E+00  0.50000499739E+01  0.50000500000E+01  0.51100000000E-03 0.  1.
         11   -1    0    0    0    0 -0.00000000000E+00 -0.00000000000E+00 -0.50000499739E+01  0.50000500000E+01  0.51100000000E-03 0. -1.
     100001    1    1    2    0    0 -0.49272572052E-02 -0.20104123559E-01  0.84586554697E-02  0.50000500000E+01  0.50000000000E+01 0.  1.
     100001    1    1    2    0    0  0.49272572052E-02  0.20104123559E-01 -0.84586554697E-02  0.50000500000E+01  0.50000000000E+01 0. -1.
</event>
<event>
 4    1  0.4919875E-001  0.5000050E+01  0.7818608E-02  0.2136455E+00
        -11   -1    0    0    0    0  0.00000000000E+00  0.00000000000E+00  0.50000499739E+01  0.50000500000E+01  0.51100000000E-03 0. -1.
         11   -1    0    0    0    0 -0.00000000000E+00 -0.00000000000E+00 -0.50000499739E+01  0.50000500000E+01  0.51100000000E-03 0.  1.
     100001    1    1    2    0    0  0.72141085906E-02 -0.14878668428E-01  0.15052719457E-01  0.50000500000E+01  0.50000000000E+01 0. -1.
     100001    1    1    2    0    0 -0.72141085906E-02  0.14878668428E-01 -0.15052719457E-01  0.50000500000E+01  0.50000000000E+01 0.  1.
</event>
<event>
 4    1  0.4919875E-001  0.5000050E+01  0.7818608E-02  0.2136455E+00
        -11   -1    0    0    0    0  0.00000000000E+00  0.00000000000E+00  0.50000499739E+01  0.50000500000E+01  0.51100000000E-03 0. -1.
         11   -1    0    0    0    0 -0.00000000000E+00 -0.00000000000E+00 -0.50000499739E+01  0.50000500000E+01  0.51100000000E-03 0.  1.
     100001    1    1    2    0    0 -0.94254078224E-02  0.92039156260E-02 -0.18067986178E-01  0.50000500000E+01  0.50000000000E+01 0.  1.
     100001    1    1    2    0    0  0.94254078224E-02 -0.92039156260E-02  0.18067986178E-01  0.50000500000E+01  0.50000000000E+01 0. -1.
</event>
<event>
 4    1  0.4919875E-001  0.5000050E+01  0.7818608E-02  0.2136455E+00
        -11   -1    0    0    0    0  0.00000000000E+00  0.00000000000E+00  0.50000499739E+01  0.50000500000E+01  0.51100000000E-03 0. -1.
         11   -1    0    0    0    0 -0.00000000000E+00 -0.00000000000E+00 -0.50000499739E+01  0.50000500000E+01  0.51100000000E-03 0.  1.
     100001    1    1    2    0    0 -0.20383179691E-01 -0.61399318397E-02 -0.68432245828E-02  0.50000500000E+01  0.50000000000E+01 0.  1.
     100001    1    1    2    0    0  0.20383179691E-01  0.61399318397E-02  0.68432245828E-02  0.50000500000E+01  0.50000000000E+01 0. -1.
</event>
<event>
 4    1  0.4919875E-001  0.5000050E+01  0.7818608E-02  0.2136455E+00
        -11   -1    0    0    0    0  0.00000000000E+00  0.00000000000E+00  0.50000499739E+01  0.50000500000E+01  0.51100000000E-03 0. -1.
         11   -1    0    0    0    0 -0.00000000000E+00 -0.00000000000E+00 -0.50000499739E+01  0.50000500000E+01  0.51100000000E-03 0.  1.
     100001    1    1    2    0    0  0.60222070716E-02 -0.34334160534E-02  0.21259049278E-01  0.50000500000E+01  0.50000000000E+01 0.  0.
     100001    1    1    2    0    0 -0.60222070716E-02  0.34334160534E-02 -0.21259049278E-01  0.50000500000E+01  0.50000000000E+01 0.  1.
</event>
<event>
 4    1  0.4919875E-001  0.5000050E+01  0.7818608E-02  0.2136455E+00
        -11   -1    0    0    0    0  0.00000000000E+00  0.00000000000E+00  0.50000499739E+01  0.50000500000E+01  0.51100000000E-03 0. -1.
         11   -1    0    0    0    0 -0.00000000000E+00 -0.00000000000E+00 -0.50000499739E+01  0.50000500000E+01  0.51100000000E-03 0.  1.
     100001    1    1    2    0    0 -0.13372085446E-01  0.17858954262E-01  0.14991942719E-02  0.50000500000E+01  0.50000000000E+01 0. -1.
     100001    1    1    2    0    0  0.13372085446E-01 -0.17858954262E-01 -0.14991942719E-02  0.50000500000E+01  0.50000000000E+01 0.  1.
</event>
<event>
 4    1  0.4919875E-001  0.5000050E+01  0.7818608E-02  0.2136455E+00
        -11   -1    0    0    0    0  0.00000000000E+00  0.00000000000E+00  0.50000499739E+01  0.50000500000E+01  0.51100000000E-03 0.  1.
         11   -1    0    0    0    0 -0.00000000000E+00 -0.00000000000E+00 -0.50000499739E+01  0.50000500000E+01  0.51100000000E-03 0. -1.
     100001    1    1    2    0    0 -0.64664805505E-02 -0.14152888240E-01  0.16058732321E-01  0.50000500000E+01  0.50000000000E+01 0.  1.
     100001    1    1    2    0    0  0.64664805505E-02  0.14152888240E-01 -0.16058732321E-01  0.50000500000E+01  0.50000000000E+01 0. -1.
</event>
<event>
 4    1  0.4919875E-001  0.5000050E+01  0.7818608E-02  0.2136455E+00
        -11   -1    0    0    0    0  0.00000000000E+00  0.00000000000E+00  0.50000499739E+01  0.50000500000E+01  0.51100000000E-03 0.  1.
         11   -1    0    0    0    0 -0.00000000000E+00 -0.00000000000E+00 -0.50000499739E+01  0.50000500000E+01  0.51100000000E-03 0. -1.
     100001    1    1    2    0    0 -0.10872698379E-01 -0.19108755967E-01  0.40795067536E-02  0.50000500000E+01  0.50000000000E+01 0. -1.
     100001    1    1    2    0    0  0.10872698379E-01  0.19108755967E-01 -0.40795067536E-02  0.50000500000E+01  0.50000000000E+01 0.  0.
</event>
<event>
 4    1  0.4919875E-001  0.5000050E+01  0.7818608E-02  0.2136455E+00
        -11   -1    0    0    0    0  0.00000000000E+00  0.00000000000E+00  0.50000499739E+01  0.50000500000E+01  0.51100000000E-03 0.  1.
         11   -1    0    0    0    0 -0.00000000000E+00 -0.00000000000E+00 -0.50000499739E+01  0.50000500000E+01  0.51100000000E-03 0. -1.
     100001    1    1    2    0    0  0.20878939170E-01 -0.74655775397E-02  0.28874817946E-02  0.50000500000E+01  0.50000000000E+01 0.  1.
     100001    1    1    2    0    0 -0.20878939170E-01  0.74655775397E-02 -0.28874817946E-02  0.50000500000E+01  0.50000000000E+01 0.  0.
</event>
<event>
 4    1  0.4919875E-001  0.5000050E+01  0.7818608E-02  0.2136455E+00
        -11   -1    0    0    0    0  0.00000000000E+00  0.00000000000E+00  0.50000499739E+01  0.50000500000E+01  0.51100000000E-03 0. -1.
         11   -1    0    0    0    0 -0.00000000000E+00 -0.00000000000E+00 -0.50000499739E+01  0.50000500000E+01  0.51100000000E-03 0.  1.
     100001    1    1    2    0    0 -0.18163759513E-01 -0.60260235755E-02 -0.11565784894E-01  0.50000500000E+01  0.50000000000E+01 0. -1.
     100001    1    1    2    0    0  0.18163759513E-01  0.60260235755E-02  0.11565784894E-01  0.50000500000E+01  0.50000000000E+01 0.  0.
</event>
<event>
 4    1  0.4919875E-001  0.5000050E+01  0.7818608E-02  0.2136455E+00
        -11   -1    0    0    0    0  0.00000000000E+00  0.00000000000E+00  0.50000499739E+01  0.50000500000E+01  0.51100000000E-03 0.  1.
         11   -1    0    0    0    0 -0.00000000000E+00 -0.00000000000E+00 -0.50000499739E+01  0.50000500000E+01  0.51100000000E-03 0. -1.
     100001    1    1    2    0    0  0.20283528694E-01  0.77108797397E-02 -0.53966005352E-02  0.50000500000E+01  0.50000000000E+01 0.  0.
     100001    1    1    2    0    0 -0.20283528694E-01 -0.77108797397E-02  0.53966005352E-02  0.50000500000E+01  0.50000000000E+01 0.  0.
</event>
<event>
 4    1  0.4919875E-001  0.5000050E+01  0.7818608E-02  0.2136455E+00
        -11   -1    0    0    0    0  0.00000000000E+00  0.00000000000E+00  0.50000499739E+01  0.50000500000E+01  0.51100000000E-03 0. -1.
         11   -1    0    0    0    0 -0.00000000000E+00 -0.00000000000E+00 -0.50000499739E+01  0.50000500000E+01  0.51100000000E-03 0.  1.
     100001    1    1    2    0    0 -0.10938941280E-01 -0.19356250772E-01 -0.23827756343E-02  0.50000500000E+01  0.50000000000E+01 0. -1.
     100001    1    1    2    0    0  0.10938941280E-01  0.19356250772E-01  0.23827756343E-02  0.50000500000E+01  0.50000000000E+01 0.  1.
</event>
<event>
 4    1  0.4919875E-001  0.5000050E+01  0.7818608E-02  0.2136455E+00
        -11   -1    0    0    0    0  0.00000000000E+00  0.00000000000E+00  0.50000499739E+01  0.50000500000E+01  0.51100000000E-03 0. -1.
         11   -1    0    0    0    0 -0.00000000000E+00 -0.00000000000E+00 -0.50000499739E+01  0.50000500000E+01  0.51100000000E-03 0.  1.
     100001    1    1    2    0    0 -0.11414093460E-01  0.26059303565E-02  0.19050724329E-01  0.50000500000E+01  0.50000000000E+01 0.  0.
     100001    1    1    2    0    0  0.11414093460E-01 -0.26059303565E-02 -0.19050724329E-01  0.50000500000E+01  0.50000000000E+01 0.  1.
</event>
<event>
 4    1  0.4919875E-001  0.5000050E+01  0.7818608E-02  0.2136455E+00
        -11   -1    0    0    0    0  0.00000000000E+00  0.00000000000E+00  0.50000499739E+01  0.50000500000E+01  0.51100000000E-03 0. -1.
         11   -1    0    0    0    0 -0.00000000000E+00 -0.00000000000E+00 -0.50000499739E+01  0.50000500000E+01  0.51100000000E-03 0.  1.
     100001    1    1    2    0    0 -0.60063136923E-02 -0.74269010069E-02 -0.20218007747E-01  0.50000500000E+01  0.50000000000E+01 0.  1.
     100001    1    1    2    0    0  0.60063136923E-02  0.74269010069E-02  0.20218007747E-01  0.50000500000E+01  0.50000000000E+01 0.  0.
</event>
<event>
 4    1  0.4919875E-001  0.5000050E+01  0.7818608E-02  0.2136455E+00
        -11   -1    0    0    0    0  0.00000000000E+00  0.00000000000E+00  0.50000499739E+01  0.50000500000E+01  0.51100000000E-03 0.  1.
         11   -1    0    0    0    0 -0.00000000000E+00 -0.00000000000E+00 -0.50000499739E+01  0.50000500000E+01  0.51100000000E-03 0. -1.
     100001    1    1    2    0    0 -0.21019353058E-01 -0.75424957767E-02  0.11401993184E-02  0.50000500000E+01  0.50000000000E+01 0.  0.
     100001    1    1    2    0    0  0.21019353058E-01  0.75424957767E-02 -0.11401993184E-02  0.50000500000E+01  0.50000000000E+01 0. -1.
</event>
<event>
 4    1  0.4919875E-001  0.5000050E+01  0.7818608E-02  0.2136455E+00
        -11   -1    0    0    0    0  0.00000000000E+00  0.00000000000E+00  0.50000499739E+01  0.50000500000E+01  0.51100000000E-03 0. -1.
         11   -1    0    0    0    0 -0.00000000000E+00 -0.00000000000E+00 -0.50000499739E+01  0.50000500000E+01  0.51100000000E-03 0.  1.
     100001    1    1    2    0    0 -0.46940390974E-02  0.17783756200E-01 -0.12716387552E-01  0.50000500000E+01  0.50000000000E+01 0.  1.
     100001    1    1    2    0    0  0.46940390974E-02 -0.17783756200E-01  0.12716387552E-01  0.50000500000E+01  0.50000000000E+01 0. -1.
</event>
<event>
 4    1  0.4919875E-001  0.5000050E+01  0.7818608E-02  0.2136455E+00
        -11   -1    0    0    0    0  0.00000000000E+00  0.00000000000E+00  0.50000499739E+01  0.50000500000E+01  0.51100000000E-03 0. -1.
         11   -1    0    0    0    0 -0.00000000000E+00 -0.00000000000E+00 -0.50000499739E+01  0.50000500000E+01  0.51100000000E-03 0.  1.
     100001    1    1    2    0    0 -0.14975080846E-01  0.16410780284E-01  0.25368768441E-02  0.50000500000E+01  0.50000000000E+01 0. -1.
     100001    1    1    2    0    0  0.14975080846E-01 -0.16410780284E-01 -0.25368768441E-02  0.50000500000E+01  0.50000000000E+01 0.  1.
</event>
<event>
 4    1  0.4919875E-001  0.5000050E+01  0.7818608E-02  0.2136455E+00
        -11   -1    0    0    0    0  0.00000000000E+00  0.00000000000E+00  0.50000499739E+01  0.50000500000E+01  0.51100000000E-03 0. -1.
         11   -1    0    0    0    0 -0.00000000000E+00 -0.00000000000E+00 -0.50000499739E+01  0.50000500000E+01  0.51100000000E-03 0.  1.
     100001    1    1    2    0    0  0.17716585276E-01  0.93261262837E-02 -0.99573327097E-02  0.50000500000E+01  0.50000000000E+01 0. -1.
     100001    1    1    2    0    0 -0.17716585276E-01 -0.93261262837E-02  0.99573327097E-02  0.50000500000E+01  0.50000000000E+01 0.  1.
</event>
<event>
 4    1  0.4919875E-001  0.5000050E+01  0.7818608E-02  0.2136455E+00
        -11   -1    0    0    0    0  0.00000000000E+00  0.00000000000E+00  0.50000499739E+01  0.50000500000E+01  0.51100000000E-03 0.  1.
         11   -1    0    0    0    0 -0.00000000000E+00 -0.00000000000E+00 -0.50000499739E+01  0.50000500000E+01  0.51100000000E-03 0. -1.
     100001    1    1    2    0    0  0.14978276213E-01  0.25667462045E-02 -0.16403217843E-01  0.50000500000E+01  0.50000000000E+01 0. -1.
     100001    1    1    2    0    0 -0.14978276213E-01 -0.25667462045E-02  0.16403217843E-01  0.50000500000E+01  0.50000000000E+01 0.  0.
</event>
<event>
 4    1  0.4919875E-001  0.5000050E+01  0.7818608E-02  0.2136455E+00
        -11   -1    0    0    0    0  0.00000000000E+00  0.00000000000E+00  0.50000499739E+01  0.50000500000E+01  0.51100000000E-03 0.  1.
         11   -1    0    0    0    0 -0.00000000000E+00 -0.00000000000E+00 -0.50000499739E+01  0.50000500000E+01  0.51100000000E-03 0. -1.
     100001    1    1    2    0    0  0.97374718853E-02  0.19007836174E-01 -0.66246739742E-02  0.50000500000E+01  0.50000000000E+01 0.  1.
     100001    1    1    2    0    0 -0.97374718853E-02 -0.19007836174E-01  0.66246739742E-02  0.50000500000E+01  0.50000000000E+01 0.  0.
</event>
<event>
 4    1  0.4919875E-001  0.5000050E+01  0.7818608E-02  0.2136455E+00
        -11   -1    0    0    0    0  0.00000000000E+00  0.00000000000E+00  0.50000499739E+01  0.50000500000E+01  0.51100000000E-03 0.  1.
         11   -1    0    0    0    0 -0.00000000000E+00 -0.00000000000E+00 -0.50000499739E+01  0.50000500000E+01  0.51100000000E-03 0. -1.
     100001    1    1    2    0    0  0.71505591165E-02  0.15435926744E-01  0.14512207616E-01  0.50000500000E+01  0.50000000000E+01 0. -1.
     100001    1    1    2    0    0 -0.71505591165E-02 -0.15435926744E-01 -0.14512207616E-01  0.50000500000E+01  0.50000000000E+01 0. -1.
</event>
<event>
 4    1  0.4919875E-001  0.5000050E+01  0.7818608E-02  0.2136455E+00
        -11   -1    0    0    0    0  0.00000000000E+00  0.00000000000E+00  0.50000499739E+01  0.50000500000E+01  0.51100000000E-03 0. -1.
         11   -1    0    0    0    0 -0.00000000000E+00 -0.00000000000E+00 -0.50000499739E+01  0.50000500000E+01  0.51100000000E-03 0.  1.
     100001    1    1    2    0    0  0.66697753341E-02  0.20643505940E-01 -0.54186953700E-02  0.50000500000E+01  0.50000000000E+01 0. -1.
     100001    1    1    2    0    0 -0.66697753341E-02 -0.20643505940E-01  0.54186953700E-02  0.50000500000E+01  0.50000000000E+01 0.  0.
</event>
<event>
 4    1  0.4919875E-001  0.5000050E+01  0.7818608E-02  0.2136455E+00
        -11   -1    0    0    0    0  0.00000000000E+00  0.00000000000E+00  0.50000499739E+01  0.50000500000E+01  0.51100000000E-03 0.  1.
         11   -1    0    0    0    0 -0.00000000000E+00 -0.00000000000E+00 -0.50000499739E+01  0.50000500000E+01  0.51100000000E-03 0. -1.
     100001    1    1    2    0    0  0.19341244283E-01 -0.79230372772E-02  0.79463356261E-02  0.50000500000E+01  0.50000000000E+01 0.  0.
     100001    1    1    2    0    0 -0.19341244283E-01  0.79230372772E-02 -0.79463356261E-02  0.50000500000E+01  0.50000000000E+01 0.  1.
</event>
<event>
 4    1  0.4919875E-001  0.5000050E+01  0.7818608E-02  0.2136455E+00
        -11   -1    0    0    0    0  0.00000000000E+00  0.00000000000E+00  0.50000499739E+01  0.50000500000E+01  0.51100000000E-03 0. -1.
         11   -1    0    0    0    0 -0.00000000000E+00 -0.00000000000E+00 -0.50000499739E+01  0.50000500000E+01  0.51100000000E-03 0.  1.
     100001    1    1    2    0    0 -0.17024984042E-01  0.61013001746E-02 -0.13150154165E-01  0.50000500000E+01  0.50000000000E+01 0.  1.
     100001    1    1    2    0    0  0.17024984042E-01 -0.61013001746E-02  0.13150154165E-01  0.50000500000E+01  0.50000000000E+01 0. -1.
</event>
<event>
 4    1  0.4919875E-001  0.5000050E+01  0.7818608E-02  0.2136455E+00
        -11   -1    0    0    0    0  0.00000000000E+00  0.00000000000E+00  0.50000499739E+01  0.50000500000E+01  0.51100000000E-03 0.  1.
         11   -1    0    0    0    0 -0.00000000000E+00 -0.00000000000E+00 -0.50000499739E+01  0.50000500000E+01  0.51100000000E-03 0. -1.
     100001    1    1    2    0    0 -0.13922776062E-01  0.89110553138E-02 -0.15058283432E-01  0.50000500000E+01  0.50000000000E+01 0.  0.
     100001    1    1    2    0    0  0.13922776062E-01 -0.89110553138E-02  0.15058283432E-01  0.50000500000E+01  0.50000000000E+01 0.  0.
</event>
<event>
 4    1  0.4919875E-001  0.5000050E+01  0.7818608E-02  0.2136455E+00
        -11   -1    0    0    0    0  0.00000000000E+00  0.00000000000E+00  0.50000499739E+01  0.50000500000E+01  0.51100000000E-03 0.  1.
         11   -1    0    0    0    0 -0.00000000000E+00 -0.00000000000E+00 -0.50000499739E+01  0.50000500000E+01  0.51100000000E-03 0. -1.
     100001    1    1    2    0    0  0.16328994362E-01  0.14990414094E-01  0.29417560065E-02  0.50000500000E+01  0.50000000000E+01 0. -1.
     100001    1    1    2    0    0 -0.16328994362E-01 -0.14990414094E-01 -0.29417560065E-02  0.50000500000E+01  0.50000000000E+01 0.  1.
</event>
<event>
 4    1  0.4919875E-001  0.5000050E+01  0.7818608E-02  0.2136455E+00
        -11   -1    0    0    0    0  0.00000000000E+00  0.00000000000E+00  0.50000499739E+01  0.50000500000E+01  0.51100000000E-03 0.  1.
         11   -1    0    0    0    0 -0.00000000000E+00 -0.00000000000E+00 -0.50000499739E+01  0.50000500000E+01  0.51100000000E-03 0. -1.
     100001    1    1    2    0    0 -0.14049835966E-01 -0.16205955753E-01 -0.63223102952E-02  0.50000500000E+01  0.50000000000E+01 0. -1.
     100001    1    1    2    0    0  0.14049835966E-01  0.16205955753E-01  0.63223102952E-02  0.50000500000E+01  0.50000000000E+01 0.  0.
</event>
<event>
 4    1  0.4919875E-001  0.5000050E+01  0.7818608E-02  0.2136455E+00
        -11   -1    0    0    0    0  0.00000000000E+00  0.00000000000E+00  0.50000499739E+01  0.50000500000E+01  0.51100000000E-03 0.  1.
         11   -1    0    0    0    0 -0.00000000000E+00 -0.00000000000E+00 -0.50000499739E+01  0.50000500000E+01  0.51100000000E-03 0. -1.
     100001    1    1    2    0    0  0.14006277332E-01  0.49096469506E-03  0.17423709391E-01  0.50000500000E+01  0.50000000000E+01 0.  1.
     100001    1    1    2    0    0 -0.14006277332E-01 -0.49096469506E-03 -0.17423709391E-01  0.50000500000E+01  0.50000000000E+01 0.  1.
</event>
<event>
 4    1  0.4919875E-001  0.5000050E+01  0.7818608E-02  0.2136455E+00
        -11   -1    0    0    0    0  0.00000000000E+00  0.00000000000E+00  0.50000499739E+01  0.50000500000E+01  0.51100000000E-03 0.  1.
         11   -1    0    0    0    0 -0.00000000000E+00 -0.00000000000E+00 -0.50000499739E+01  0.50000500000E+01  0.51100000000E-03 0. -1.
     100001    1    1    2    0    0 -0.86470284372E-03 -0.13719378596E-01  0.17636140166E-01  0.50000500000E+01  0.50000000000E+01 0.  0.
     100001    1    1    2    0    0  0.86470284372E-03  0.13719378596E-01 -0.17636140166E-01  0.50000500000E+01  0.50000000000E+01 0.  0.
</event>
<event>
 4    1  0.4919875E-001  0.5000050E+01  0.7818608E-02  0.2136455E+00
        -11   -1    0    0    0    0  0.00000000000E+00  0.00000000000E+00  0.50000499739E+01  0.50000500000E+01  0.51100000000E-03 0. -1.
         11   -1    0    0    0    0 -0.00000000000E+00 -0.00000000000E+00 -0.50000499739E+01  0.50000500000E+01  0.51100000000E-03 0.  1.
     100001    1    1    2    0    0 -0.22785478105E-02  0.21478542872E-01 -0.57864424292E-02  0.50000500000E+01  0.50000000000E+01 0.  0.
     100001    1    1    2    0    0  0.22785478105E-02 -0.21478542872E-01  0.57864424292E-02  0.50000500000E+01  0.50000000000E+01 0.  1.
</event>
<event>
 4    1  0.4919875E-001  0.5000050E+01  0.7818608E-02  0.2136455E+00
        -11   -1    0    0    0    0  0.00000000000E+00  0.00000000000E+00  0.50000499739E+01  0.50000500000E+01  0.51100000000E-03 0. -1.
         11   -1    0    0    0    0 -0.00000000000E+00 -0.00000000000E+00 -0.50000499739E+01  0.50000500000E+01  0.51100000000E-03 0.  1.
     100001    1    1    2    0    0  0.10950494087E-01  0.98891223702E-02 -0.16801620100E-01  0.50000500000E+01  0.50000000000E+01 0.  1.
     100001    1    1    2    0    0 -0.10950494087E-01 -0.98891223702E-02  0.16801620100E-01  0.50000500000E+01  0.50000000000E+01 0. -1.
</event>
<event>
 4    1  0.4919875E-001  0.5000050E+01  0.7818608E-02  0.2136455E+00
        -11   -1    0    0    0    0  0.00000000000E+00  0.00000000000E+00  0.50000499739E+01  0.50000500000E+01  0.51100000000E-03 0.  1.
         11   -1    0    0    0    0 -0.00000000000E+00 -0.00000000000E+00 -0.50000499739E+01  0.50000500000E+01  0.51100000000E-03 0. -1.
     100001    1    1    2    0    0  0.20777683482E-02 -0.20630427636E-01 -0.83708323502E-02  0.50000500000E+01  0.50000000000E+01 0.  0.
     100001    1    1    2    0    0 -0.20777683482E-02  0.20630427636E-01  0.83708323502E-02  0.50000500000E+01  0.50000000000E+01 0. -1.
</event>
<event>
 4    1  0.4919875E-001  0.5000050E+01  0.7818608E-02  0.2136455E+00
        -11   -1    0    0    0    0  0.00000000000E+00  0.00000000000E+00  0.50000499739E+01  0.50000500000E+01  0.51100000000E-03 0. -1.
         11   -1    0    0    0    0 -0.00000000000E+00 -0.00000000000E+00 -0.50000499739E+01  0.50000500000E+01  0.51100000000E-03 0.  1.
     100001    1    1    2    0    0  0.16488331043E-01  0.11234690934E-01  0.10095501921E-01  0.50000500000E+01  0.50000000000E+01 0. -1.
     100001    1    1    2    0    0 -0.16488331043E-01 -0.11234690934E-01 -0.10095501921E-01  0.50000500000E+01  0.50000000000E+01 0.  1.
</event>
<event>
 4    1  0.4919875E-001  0.5000050E+01  0.7818608E-02  0.2136455E+00
        -11   -1    0    0    0    0  0.00000000000E+00  0.00000000000E+00  0.50000499739E+01  0.50000500000E+01  0.51100000000E-03 0. -1.
         11   -1    0    0    0    0 -0.00000000000E+00 -0.00000000000E+00 -0.50000499739E+01  0.50000500000E+01  0.51100000000E-03 0.  1.
     100001    1    1    2    0    0 -0.36672535425E-02  0.17531488576E-01  0.13386585067E-01  0.50000500000E+01  0.50000000000E+01 0.  0.
     100001    1    1    2    0    0  0.36672535425E-02 -0.17531488576E-01 -0.13386585067E-01  0.50000500000E+01  0.50000000000E+01 0.  0.
</event>
<event>
 4    1  0.4919875E-001  0.5000050E+01  0.7818608E-02  0.2136455E+00
        -11   -1    0    0    0    0  0.00000000000E+00  0.00000000000E+00  0.50000499739E+01  0.50000500000E+01  0.51100000000E-03 0.  1.
         11   -1    0    0    0    0 -0.00000000000E+00 -0.00000000000E+00 -0.50000499739E+01  0.50000500000E+01  0.51100000000E-03 0. -1.
     100001    1    1    2    0    0  0.90249734846E-02  0.70130034977E-02 -0.19219004541E-01  0.50000500000E+01  0.50000000000E+01 0.  0.
     100001    1    1    2    0    0 -0.90249734846E-02 -0.70130034977E-02  0.19219004541E-01  0.50000500000E+01  0.50000000000E+01 0.  0.
</event>
<event>
 4    1  0.4919875E-001  0.5000050E+01  0.7818608E-02  0.2136455E+00
        -11   -1    0    0    0    0  0.00000000000E+00  0.00000000000E+00  0.50000499739E+01  0.50000500000E+01  0.51100000000E-03 0.  1.
         11   -1    0    0    0    0 -0.00000000000E+00 -0.00000000000E+00 -0.50000499739E+01  0.50000500000E+01  0.51100000000E-03 0. -1.
     100001    1    1    2    0    0  0.11182868946E-01  0.18744737428E-01  0.48560025622E-02  0.50000500000E+01  0.50000000000E+01 0.  1.
     100001    1    1    2    0    0 -0.11182868946E-01 -0.18744737428E-01 -0.48560025622E-02  0.50000500000E+01  0.50000000000E+01 0. -1.
</event>
<event>
 4    1  0.4919875E-001  0.5000050E+01  0.7818608E-02  0.2136455E+00
        -11   -1    0    0    0    0  0.00000000000E+00  0.00000000000E+00  0.50000499739E+01  0.50000500000E+01  0.51100000000E-03 0. -1.
         11   -1    0    0    0    0 -0.00000000000E+00 -0.00000000000E+00 -0.50000499739E+01  0.50000500000E+01  0.51100000000E-03 0.  1.
     100001    1    1    2    0    0 -0.11587974059E-02  0.84630250662E-02  0.20664871045E-01  0.50000500000E+01  0.50000000000E+01 0. -1.
     100001    1    1    2    0    0  0.11587974059E-02 -0.84630250662E-02 -0.20664871045E-01  0.50000500000E+01  0.50000000000E+01 0.  0.
</event>
<event>
 4    1  0.4919875E-001  0.5000050E+01  0.7818608E-02  0.2136455E+00
        -11   -1    0    0    0    0  0.00000000000E+00  0.00000000000E+00  0.50000499739E+01  0.50000500000E+01  0.51100000000E-03 0.  1.
         11   -1    0    0    0    0 -0.00000000000E+00 -0.00000000000E+00 -0.50000499739E+01  0.50000500000E+01  0.51100000000E-03 0. -1.
     100001    1    1    2    0    0  0.19165814708E-01  0.11217994302E-01 -0.26135513071E-02  0.50000500000E+01  0.50000000000E+01 0.  0.
     100001    1    1    2    0    0 -0.19165814708E-01 -0.11217994302E-01  0.26135513071E-02  0.50000500000E+01  0.50000000000E+01 0. -1.
</event>
<event>
 4    1  0.4919875E-001  0.5000050E+01  0.7818608E-02  0.2136455E+00
        -11   -1    0    0    0    0  0.00000000000E+00  0.00000000000E+00  0.50000499739E+01  0.50000500000E+01  0.51100000000E-03 0. -1.
         11   -1    0    0    0    0 -0.00000000000E+00 -0.00000000000E+00 -0.50000499739E+01  0.50000500000E+01  0.51100000000E-03 0.  1.
     100001    1    1    2    0    0 -0.11799220179E-01 -0.61661094118E-02 -0.17965522477E-01  0.50000500000E+01  0.50000000000E+01 0.  0.
     100001    1    1    2    0    0  0.11799220179E-01  0.61661094118E-02  0.17965522477E-01  0.50000500000E+01  0.50000000000E+01 0.  0.
</event>
<event>
 4    1  0.4919875E-001  0.5000050E+01  0.7818608E-02  0.2136455E+00
        -11   -1    0    0    0    0  0.00000000000E+00  0.00000000000E+00  0.50000499739E+01  0.50000500000E+01  0.51100000000E-03 0. -1.
         11   -1    0    0    0    0 -0.00000000000E+00 -0.00000000000E+00 -0.50000499739E+01  0.50000500000E+01  0.51100000000E-03 0.  1.
     100001    1    1    2    0    0 -0.13133078167E-01  0.11068180263E-01  0.14318524489E-01  0.50000500000E+01  0.50000000000E+01 0. -1.
     100001    1    1    2    0    0  0.13133078167E-01 -0.11068180263E-01 -0.14318524489E-01  0.50000500000E+01  0.50000000000E+01 0.  1.
</event>
<event>
 4    1  0.4919875E-001  0.5000050E+01  0.7818608E-02  0.2136455E+00
        -11   -1    0    0    0    0  0.00000000000E+00  0.00000000000E+00  0.50000499739E+01  0.50000500000E+01  0.51100000000E-03 0. -1.
         11   -1    0    0    0    0 -0.00000000000E+00 -0.00000000000E+00 -0.50000499739E+01  0.50000500000E+01  0.51100000000E-03 0.  1.
     100001    1    1    2    0    0  0.11397114491E-01  0.16232605074E-01 -0.10325251271E-01  0.50000500000E+01  0.50000000000E+01 0.  0.
     100001    1    1    2    0    0 -0.11397114491E-01 -0.16232605074E-01  0.10325251271E-01  0.50000500000E+01  0.50000000000E+01 0.  0.
</event>
<event>
 4    1  0.4919875E-001  0.5000050E+01  0.7818608E-02  0.2136455E+00
        -11   -1    0    0    0    0  0.00000000000E+00  0.00000000000E+00  0.50000499739E+01  0.50000500000E+01  0.51100000000E-03 0.  1.
         11   -1    0    0    0    0 -0.00000000000E+00 -0.00000000000E+00 -0.50000499739E+01  0.50000500000E+01  0.51100000000E-03 0. -1.
     100001    1    1    2    0    0  0.15838475941E-02  0.53001395167E-02 -0.21665697494E-01  0.50000500000E+01  0.50000000000E+01 0. -1.
     100001    1    1    2    0    0 -0.15838475941E-02 -0.53001395167E-02  0.21665697494E-01  0.50000500000E+01  0.50000000000E+01 0.  0.
</event>
<event>
 4    1  0.4919875E-001  0.5000050E+01  0.7818608E-02  0.2136455E+00
        -11   -1    0    0    0    0  0.00000000000E+00  0.00000000000E+00  0.50000499739E+01  0.50000500000E+01  0.51100000000E-03 0.  1.
         11   -1    0    0    0    0 -0.00000000000E+00 -0.00000000000E+00 -0.50000499739E+01  0.50000500000E+01  0.51100000000E-03 0. -1.
     100001    1    1    2    0    0  0.66321268572E-02 -0.46066500567E-03  0.21349594401E-01  0.50000500000E+01  0.50000000000E+01 0.  1.
     100001    1    1    2    0    0 -0.66321268572E-02  0.46066500567E-03 -0.21349594401E-01  0.50000500000E+01  0.50000000000E+01 0.  0.
</event>
<event>
 4    1  0.4919875E-001  0.5000050E+01  0.7818608E-02  0.2136455E+00
        -11   -1    0    0    0    0  0.00000000000E+00  0.00000000000E+00  0.50000499739E+01  0.50000500000E+01  0.51100000000E-03 0. -1.
         11   -1    0    0    0    0 -0.00000000000E+00 -0.00000000000E+00 -0.50000499739E+01  0.50000500000E+01  0.51100000000E-03 0.  1.
     100001    1    1    2    0    0  0.84852780202E-02  0.29350208439E-02  0.20478969934E-01  0.50000500000E+01  0.50000000000E+01 0.  0.
     100001    1    1    2    0    0 -0.84852780202E-02 -0.29350208439E-02 -0.20478969934E-01  0.50000500000E+01  0.50000000000E+01 0.  0.
</event>
<event>
 4    1  0.4919875E-001  0.5000050E+01  0.7818608E-02  0.2136455E+00
        -11   -1    0    0    0    0  0.00000000000E+00  0.00000000000E+00  0.50000499739E+01  0.50000500000E+01  0.51100000000E-03 0.  1.
         11   -1    0    0    0    0 -0.00000000000E+00 -0.00000000000E+00 -0.50000499739E+01  0.50000500000E+01  0.51100000000E-03 0. -1.
     100001    1    1    2    0    0 -0.10984150443E-01  0.75388552208E-02 -0.17958747200E-01  0.50000500000E+01  0.50000000000E+01 0. -1.
     100001    1    1    2    0    0  0.10984150443E-01 -0.75388552208E-02  0.17958747200E-01  0.50000500000E+01  0.50000000000E+01 0.  1.
</event>
<event>
 4    1  0.4919875E-001  0.5000050E+01  0.7818608E-02  0.2136455E+00
        -11   -1    0    0    0    0  0.00000000000E+00  0.00000000000E+00  0.50000499739E+01  0.50000500000E+01  0.51100000000E-03 0. -1.
         11   -1    0    0    0    0 -0.00000000000E+00 -0.00000000000E+00 -0.50000499739E+01  0.50000500000E+01  0.51100000000E-03 0.  1.
     100001    1    1    2    0    0  0.14230709277E-01 -0.70654899033E-02  0.15734302205E-01  0.50000500000E+01  0.50000000000E+01 0. -1.
     100001    1    1    2    0    0 -0.14230709277E-01  0.70654899033E-02 -0.15734302205E-01  0.50000500000E+01  0.50000000000E+01 0.  1.
</event>
<event>
 4    1  0.4919875E-001  0.5000050E+01  0.7818608E-02  0.2136455E+00
        -11   -1    0    0    0    0  0.00000000000E+00  0.00000000000E+00  0.50000499739E+01  0.50000500000E+01  0.51100000000E-03 0. -1.
         11   -1    0    0    0    0 -0.00000000000E+00 -0.00000000000E+00 -0.50000499739E+01  0.50000500000E+01  0.51100000000E-03 0.  1.
     100001    1    1    2    0    0 -0.66375857761E-04  0.29628123333E-02  0.22163479811E-01  0.50000500000E+01  0.50000000000E+01 0. -1.
     100001    1    1    2    0    0  0.66375857761E-04 -0.29628123333E-02 -0.22163479811E-01  0.50000500000E+01  0.50000000000E+01 0.  0.
</event>
<event>
 4    1  0.4919875E-001  0.5000050E+01  0.7818608E-02  0.2136455E+00
        -11   -1    0    0    0    0  0.00000000000E+00  0.00000000000E+00  0.50000499739E+01  0.50000500000E+01  0.51100000000E-03 0.  1.
         11   -1    0    0    0    0 -0.00000000000E+00 -0.00000000000E+00 -0.50000499739E+01  0.50000500000E+01  0.51100000000E-03 0. -1.
     100001    1    1    2    0    0 -0.13051057247E-01  0.17341970255E-01 -0.53785195375E-02  0.50000500000E+01  0.50000000000E+01 0.  1.
     100001    1    1    2    0    0  0.13051057247E-01 -0.17341970255E-01  0.53785195375E-02  0.50000500000E+01  0.50000000000E+01 0. -1.
</event>
<event>
 4    1  0.4919875E-001  0.5000050E+01  0.7818608E-02  0.2136455E+00
        -11   -1    0    0    0    0  0.00000000000E+00  0.00000000000E+00  0.50000499739E+01  0.50000500000E+01  0.51100000000E-03 0. -1.
         11   -1    0    0    0    0 -0.00000000000E+00 -0.00000000000E+00 -0.50000499739E+01  0.50000500000E+01  0.51100000000E-03 0.  1.
     100001    1    1    2    0    0 -0.45735524774E-02  0.12736003272E-01 -0.17801104977E-01  0.50000500000E+01  0.50000000000E+01 0.  0.
     100001    1    1    2    0    0  0.45735524774E-02 -0.12736003272E-01  0.17801104977E-01  0.50000500000E+01  0.50000000000E+01 0.  0.
</event>
<event>
 4    1  0.4919875E-001  0.5000050E+01  0.7818608E-02  0.2136455E+00
        -11   -1    0    0    0    0  0.00000000000E+00  0.00000000000E+00  0.50000499739E+01  0.50000500000E+01  0.51100000000E-03 0. -1.
         11   -1    0    0    0    0 -0.00000000000E+00 -0.00000000000E+00 -0.50000499739E+01  0.50000500000E+01  0.51100000000E-03 0.  1.
     100001    1    1    2    0    0  0.90681641122E-02 -0.19865819326E-01 -0.48083388133E-02  0.50000500000E+01  0.50000000000E+01 0. -1.
     100001    1    1    2    0    0 -0.90681641122E-02  0.19865819326E-01  0.48083388133E-02  0.50000500000E+01  0.50000000000E+01 0.  0.
</event>
<event>
 4    1  0.4919875E-001  0.5000050E+01  0.7818608E-02  0.2136455E+00
        -11   -1    0    0    0    0  0.00000000000E+00  0.00000000000E+00  0.50000499739E+01  0.50000500000E+01  0.51100000000E-03 0. -1.
         11   -1    0    0    0    0 -0.00000000000E+00 -0.00000000000E+00 -0.50000499739E+01  0.50000500000E+01  0.51100000000E-03 0.  1.
     100001    1    1    2    0    0 -0.17635662778E-01  0.52599709372E-02 -0.12701126097E-01  0.50000500000E+01  0.50000000000E+01 0.  0.
     100001    1    1    2    0    0  0.17635662778E-01 -0.52599709372E-02  0.12701126097E-01  0.50000500000E+01  0.50000000000E+01 0.  0.
</event>
<event>
 4    1  0.4919875E-001  0.5000050E+01  0.7818608E-02  0.2136455E+00
        -11   -1    0    0    0    0  0.00000000000E+00  0.00000000000E+00  0.50000499739E+01  0.50000500000E+01  0.51100000000E-03 0.  1.
         11   -1    0    0    0    0 -0.00000000000E+00 -0.00000000000E+00 -0.50000499739E+01  0.50000500000E+01  0.51100000000E-03 0. -1.
     100001    1    1    2    0    0 -0.19671671676E-01  0.51220901345E-02 -0.93162238121E-02  0.50000500000E+01  0.50000000000E+01 0. -1.
     100001    1    1    2    0    0  0.19671671676E-01 -0.51220901345E-02  0.93162238121E-02  0.50000500000E+01  0.50000000000E+01 0.  1.
</event>
<event>
 4    1  0.4919875E-001  0.5000050E+01  0.7818608E-02  0.2136455E+00
        -11   -1    0    0    0    0  0.00000000000E+00  0.00000000000E+00  0.50000499739E+01  0.50000500000E+01  0.51100000000E-03 0. -1.
         11   -1    0    0    0    0 -0.00000000000E+00 -0.00000000000E+00 -0.50000499739E+01  0.50000500000E+01  0.51100000000E-03 0.  1.
     100001    1    1    2    0    0  0.21063391528E-01  0.54196897007E-02 -0.51925909609E-02  0.50000500000E+01  0.50000000000E+01 0.  1.
     100001    1    1    2    0    0 -0.21063391528E-01 -0.54196897007E-02  0.51925909609E-02  0.50000500000E+01  0.50000000000E+01 0. -1.
</event>
<event>
 4    1  0.4919875E-001  0.5000050E+01  0.7818608E-02  0.2136455E+00
        -11   -1    0    0    0    0  0.00000000000E+00  0.00000000000E+00  0.50000499739E+01  0.50000500000E+01  0.51100000000E-03 0. -1.
         11   -1    0    0    0    0 -0.00000000000E+00 -0.00000000000E+00 -0.50000499739E+01  0.50000500000E+01  0.51100000000E-03 0.  1.
     100001    1    1    2    0    0 -0.10764902511E-01 -0.11957456767E-01  0.15528638111E-01  0.50000500000E+01  0.50000000000E+01 0. -1.
     100001    1    1    2    0    0  0.10764902511E-01  0.11957456767E-01 -0.15528638111E-01  0.50000500000E+01  0.50000000000E+01 0.  1.
</event>
<event>
 4    1  0.4919875E-001  0.5000050E+01  0.7818608E-02  0.2136455E+00
        -11   -1    0    0    0    0  0.00000000000E+00  0.00000000000E+00  0.50000499739E+01  0.50000500000E+01  0.51100000000E-03 0.  1.
         11   -1    0    0    0    0 -0.00000000000E+00 -0.00000000000E+00 -0.50000499739E+01  0.50000500000E+01  0.51100000000E-03 0. -1.
     100001    1    1    2    0    0  0.34429724842E-02 -0.11704203994E-01 -0.18739264909E-01  0.50000500000E+01  0.50000000000E+01 0. -1.
     100001    1    1    2    0    0 -0.34429724842E-02  0.11704203994E-01  0.18739264909E-01  0.50000500000E+01  0.50000000000E+01 0.  0.
</event>
<event>
 4    1  0.4919875E-001  0.5000050E+01  0.7818608E-02  0.2136455E+00
        -11   -1    0    0    0    0  0.00000000000E+00  0.00000000000E+00  0.50000499739E+01  0.50000500000E+01  0.51100000000E-03 0.  1.
         11   -1    0    0    0    0 -0.00000000000E+00 -0.00000000000E+00 -0.50000499739E+01  0.50000500000E+01  0.51100000000E-03 0. -1.
     100001    1    1    2    0    0 -0.12019106751E-01  0.12967734198E-01  0.13688734151E-01  0.50000500000E+01  0.50000000000E+01 0.  1.
     100001    1    1    2    0    0  0.12019106751E-01 -0.12967734198E-01 -0.13688734151E-01  0.50000500000E+01  0.50000000000E+01 0. -1.
</event>
<event>
 4    1  0.4919875E-001  0.5000050E+01  0.7818608E-02  0.2136455E+00
        -11   -1    0    0    0    0  0.00000000000E+00  0.00000000000E+00  0.50000499739E+01  0.50000500000E+01  0.51100000000E-03 0.  1.
         11   -1    0    0    0    0 -0.00000000000E+00 -0.00000000000E+00 -0.50000499739E+01  0.50000500000E+01  0.51100000000E-03 0. -1.
     100001    1    1    2    0    0  0.46376340665E-02 -0.18226103392E-01  0.12095619265E-01  0.50000500000E+01  0.50000000000E+01 0.  1.
     100001    1    1    2    0    0 -0.46376340665E-02  0.18226103392E-01 -0.12095619265E-01  0.50000500000E+01  0.50000000000E+01 0. -1.
</event>
<event>
 4    1  0.4919875E-001  0.5000050E+01  0.7818608E-02  0.2136455E+00
        -11   -1    0    0    0    0  0.00000000000E+00  0.00000000000E+00  0.50000499739E+01  0.50000500000E+01  0.51100000000E-03 0.  1.
         11   -1    0    0    0    0 -0.00000000000E+00 -0.00000000000E+00 -0.50000499739E+01  0.50000500000E+01  0.51100000000E-03 0. -1.
     100001    1    1    2    0    0  0.11803052156E-01 -0.18947543822E-01  0.12965503827E-02  0.50000500000E+01  0.50000000000E+01 0. -1.
     100001    1    1    2    0    0 -0.11803052156E-01  0.18947543822E-01 -0.12965503827E-02  0.50000500000E+01  0.50000000000E+01 0.  1.
</event>
<event>
 4    1  0.4919875E-001  0.5000050E+01  0.7818608E-02  0.2136455E+00
        -11   -1    0    0    0    0  0.00000000000E+00  0.00000000000E+00  0.50000499739E+01  0.50000500000E+01  0.51100000000E-03 0.  1.
         11   -1    0    0    0    0 -0.00000000000E+00 -0.00000000000E+00 -0.50000499739E+01  0.50000500000E+01  0.51100000000E-03 0. -1.
     100001    1    1    2    0    0  0.16245832390E-01 -0.61599381132E-02 -0.14075886913E-01  0.50000500000E+01  0.50000000000E+01 0. -1.
     100001    1    1    2    0    0 -0.16245832390E-01  0.61599381132E-02  0.14075886913E-01  0.50000500000E+01  0.50000000000E+01 0.  1.
</event>
<event>
 4    1  0.4919875E-001  0.5000050E+01  0.7818608E-02  0.2136455E+00
        -11   -1    0    0    0    0  0.00000000000E+00  0.00000000000E+00  0.50000499739E+01  0.50000500000E+01  0.51100000000E-03 0.  1.
         11   -1    0    0    0    0 -0.00000000000E+00 -0.00000000000E+00 -0.50000499739E+01  0.50000500000E+01  0.51100000000E-03 0. -1.
     100001    1    1    2    0    0 -0.45046848848E-02 -0.21170585049E-01  0.56139685403E-02  0.50000500000E+01  0.50000000000E+01 0. -1.
     100001    1    1    2    0    0  0.45046848848E-02  0.21170585049E-01 -0.56139685403E-02  0.50000500000E+01  0.50000000000E+01 0.  0.
</event>
<event>
 4    1  0.4919875E-001  0.5000050E+01  0.7818608E-02  0.2136455E+00
        -11   -1    0    0    0    0  0.00000000000E+00  0.00000000000E+00  0.50000499739E+01  0.50000500000E+01  0.51100000000E-03 0.  1.
         11   -1    0    0    0    0 -0.00000000000E+00 -0.00000000000E+00 -0.50000499739E+01  0.50000500000E+01  0.51100000000E-03 0. -1.
     100001    1    1    2    0    0  0.17108845919E-01  0.79994744879E-02 -0.11970726763E-01  0.50000500000E+01  0.50000000000E+01 0. -1.
     100001    1    1    2    0    0 -0.17108845919E-01 -0.79994744879E-02  0.11970726763E-01  0.50000500000E+01  0.50000000000E+01 0.  1.
</event>
<event>
 4    1  0.4919875E-001  0.5000050E+01  0.7818608E-02  0.2136455E+00
        -11   -1    0    0    0    0  0.00000000000E+00  0.00000000000E+00  0.50000499739E+01  0.50000500000E+01  0.51100000000E-03 0. -1.
         11   -1    0    0    0    0 -0.00000000000E+00 -0.00000000000E+00 -0.50000499739E+01  0.50000500000E+01  0.51100000000E-03 0.  1.
     100001    1    1    2    0    0 -0.76596681405E-02 -0.19160904695E-01 -0.86134612811E-02  0.50000500000E+01  0.50000000000E+01 0.  0.
     100001    1    1    2    0    0  0.76596681405E-02  0.19160904695E-01  0.86134612811E-02  0.50000500000E+01  0.50000000000E+01 0.  1.
</event>
<event>
 4    1  0.4919875E-001  0.5000050E+01  0.7818608E-02  0.2136455E+00
        -11   -1    0    0    0    0  0.00000000000E+00  0.00000000000E+00  0.50000499739E+01  0.50000500000E+01  0.51100000000E-03 0.  1.
         11   -1    0    0    0    0 -0.00000000000E+00 -0.00000000000E+00 -0.50000499739E+01  0.50000500000E+01  0.51100000000E-03 0. -1.
     100001    1    1    2    0    0 -0.19033644347E-01 -0.10887578248E-01  0.43798998563E-02  0.50000500000E+01  0.50000000000E+01 0.  1.
     100001    1    1    2    0    0  0.19033644347E-01  0.10887578248E-01 -0.43798998563E-02  0.50000500000E+01  0.50000000000E+01 0. -1.
</event>
<event>
 4    1  0.4919875E-001  0.5000050E+01  0.7818608E-02  0.2136455E+00
        -11   -1    0    0    0    0  0.00000000000E+00  0.00000000000E+00  0.50000499739E+01  0.50000500000E+01  0.51100000000E-03 0.  1.
         11   -1    0    0    0    0 -0.00000000000E+00 -0.00000000000E+00 -0.50000499739E+01  0.50000500000E+01  0.51100000000E-03 0. -1.
     100001    1    1    2    0    0  0.10320990386E-01  0.19569310543E-01  0.32437235283E-02  0.50000500000E+01  0.50000000000E+01 0.  1.
     100001    1    1    2    0    0 -0.10320990386E-01 -0.19569310543E-01 -0.32437235283E-02  0.50000500000E+01  0.50000000000E+01 0.  0.
</event>
<event>
 4    1  0.4919875E-001  0.5000050E+01  0.7818608E-02  0.2136455E+00
        -11   -1    0    0    0    0  0.00000000000E+00  0.00000000000E+00  0.50000499739E+01  0.50000500000E+01  0.51100000000E-03 0.  1.
         11   -1    0    0    0    0 -0.00000000000E+00 -0.00000000000E+00 -0.50000499739E+01  0.50000500000E+01  0.51100000000E-03 0. -1.
     100001    1    1    2    0    0  0.13927625755E-01  0.17483052650E-01  0.60548399918E-03  0.50000500000E+01  0.50000000000E+01 0.  1.
     100001    1    1    2    0    0 -0.13927625755E-01 -0.17483052650E-01 -0.60548399918E-03  0.50000500000E+01  0.50000000000E+01 0. -1.
</event>
<event>
 4    1  0.4919875E-001  0.5000050E+01  0.7818608E-02  0.2136455E+00
        -11   -1    0    0    0    0  0.00000000000E+00  0.00000000000E+00  0.50000499739E+01  0.50000500000E+01  0.51100000000E-03 0. -1.
         11   -1    0    0    0    0 -0.00000000000E+00 -0.00000000000E+00 -0.50000499739E+01  0.50000500000E+01  0.51100000000E-03 0.  1.
     100001    1    1    2    0    0  0.84579965794E-02  0.20553010693E-01 -0.24573451753E-02  0.50000500000E+01  0.50000000000E+01 0. -1.
     100001    1    1    2    0    0 -0.84579965794E-02 -0.20553010693E-01  0.24573451753E-02  0.50000500000E+01  0.50000000000E+01 0.  1.
</event>
<event>
 4    1  0.4919875E-001  0.5000050E+01  0.7818608E-02  0.2136455E+00
        -11   -1    0    0    0    0  0.00000000000E+00  0.00000000000E+00  0.50000499739E+01  0.50000500000E+01  0.51100000000E-03 0.  1.
         11   -1    0    0    0    0 -0.00000000000E+00 -0.00000000000E+00 -0.50000499739E+01  0.50000500000E+01  0.51100000000E-03 0. -1.
     100001    1    1    2    0    0  0.52002382592E-03  0.19249314774E-01  0.11366439898E-01  0.50000500000E+01  0.50000000000E+01 0. -1.
     100001    1    1    2    0    0 -0.52002382592E-03 -0.19249314774E-01 -0.11366439898E-01  0.50000500000E+01  0.50000000000E+01 0.  0.
</event>
<event>
 4    1  0.4919875E-001  0.5000050E+01  0.7818608E-02  0.2136455E+00
        -11   -1    0    0    0    0  0.00000000000E+00  0.00000000000E+00  0.50000499739E+01  0.50000500000E+01  0.51100000000E-03 0.  1.
         11   -1    0    0    0    0 -0.00000000000E+00 -0.00000000000E+00 -0.50000499739E+01  0.50000500000E+01  0.51100000000E-03 0. -1.
     100001    1    1    2    0    0  0.18324190408E-01 -0.59447341185E-02  0.11352827055E-01  0.50000500000E+01  0.50000000000E+01 0. -1.
     100001    1    1    2    0    0 -0.18324190408E-01  0.59447341185E-02 -0.11352827055E-01  0.50000500000E+01  0.50000000000E+01 0. -1.
</event>
<event>
 4    1  0.4919875E-001  0.5000050E+01  0.7818608E-02  0.2136455E+00
        -11   -1    0    0    0    0  0.00000000000E+00  0.00000000000E+00  0.50000499739E+01  0.50000500000E+01  0.51100000000E-03 0.  1.
         11   -1    0    0    0    0 -0.00000000000E+00 -0.00000000000E+00 -0.50000499739E+01  0.50000500000E+01  0.51100000000E-03 0. -1.
     100001    1    1    2    0    0 -0.16315515216E-01  0.78535712178E-02 -0.13119751613E-01  0.50000500000E+01  0.50000000000E+01 0. -1.
     100001    1    1    2    0    0  0.16315515216E-01 -0.78535712178E-02  0.13119751613E-01  0.50000500000E+01  0.50000000000E+01 0. -1.
</event>
<event>
 4    1  0.4919875E-001  0.5000050E+01  0.7818608E-02  0.2136455E+00
        -11   -1    0    0    0    0  0.00000000000E+00  0.00000000000E+00  0.50000499739E+01  0.50000500000E+01  0.51100000000E-03 0.  1.
         11   -1    0    0    0    0 -0.00000000000E+00 -0.00000000000E+00 -0.50000499739E+01  0.50000500000E+01  0.51100000000E-03 0. -1.
     100001    1    1    2    0    0  0.22001574589E-01  0.39098887907E-02 -0.80373206619E-03  0.50000500000E+01  0.50000000000E+01 0. -1.
     100001    1    1    2    0    0 -0.22001574589E-01 -0.39098887907E-02  0.80373206619E-03  0.50000500000E+01  0.50000000000E+01 0.  0.
</event>
<event>
 4    1  0.4919875E-001  0.5000050E+01  0.7818608E-02  0.2136455E+00
        -11   -1    0    0    0    0  0.00000000000E+00  0.00000000000E+00  0.50000499739E+01  0.50000500000E+01  0.51100000000E-03 0. -1.
         11   -1    0    0    0    0 -0.00000000000E+00 -0.00000000000E+00 -0.50000499739E+01  0.50000500000E+01  0.51100000000E-03 0.  1.
     100001    1    1    2    0    0  0.96449369218E-02 -0.19747225658E-01  0.41261084054E-02  0.50000500000E+01  0.50000000000E+01 0. -1.
     100001    1    1    2    0    0 -0.96449369218E-02  0.19747225658E-01 -0.41261084054E-02  0.50000500000E+01  0.50000000000E+01 0.  1.
</event>
<event>
 4    1  0.4919875E-001  0.5000050E+01  0.7818608E-02  0.2136455E+00
        -11   -1    0    0    0    0  0.00000000000E+00  0.00000000000E+00  0.50000499739E+01  0.50000500000E+01  0.51100000000E-03 0. -1.
         11   -1    0    0    0    0 -0.00000000000E+00 -0.00000000000E+00 -0.50000499739E+01  0.50000500000E+01  0.51100000000E-03 0.  1.
     100001    1    1    2    0    0  0.82296726284E-02  0.11743523226E-01 -0.17157058334E-01  0.50000500000E+01  0.50000000000E+01 0.  1.
     100001    1    1    2    0    0 -0.82296726284E-02 -0.11743523226E-01  0.17157058334E-01  0.50000500000E+01  0.50000000000E+01 0.  1.
</event>
<event>
 4    1  0.4919875E-001  0.5000050E+01  0.7818608E-02  0.2136455E+00
        -11   -1    0    0    0    0  0.00000000000E+00  0.00000000000E+00  0.50000499739E+01  0.50000500000E+01  0.51100000000E-03 0.  1.
         11   -1    0    0    0    0 -0.00000000000E+00 -0.00000000000E+00 -0.50000499739E+01  0.50000500000E+01  0.51100000000E-03 0. -1.
     100001    1    1    2    0    0 -0.21550357850E-01 -0.47990279696E-02 -0.35431493145E-02  0.50000500000E+01  0.50000000000E+01 0. -1.
     100001    1    1    2    0    0  0.21550357850E-01  0.47990279696E-02  0.35431493145E-02  0.50000500000E+01  0.50000000000E+01 0.  0.
</event>
<event>
 4    1  0.4919875E-001  0.5000050E+01  0.7818608E-02  0.2136455E+00
        -11   -1    0    0    0    0  0.00000000000E+00  0.00000000000E+00  0.50000499739E+01  0.50000500000E+01  0.51100000000E-03 0.  1.
         11   -1    0    0    0    0 -0.00000000000E+00 -0.00000000000E+00 -0.50000499739E+01  0.50000500000E+01  0.51100000000E-03 0. -1.
     100001    1    1    2    0    0  0.16103101035E-01 -0.85905386063E-02 -0.12918795745E-01  0.50000500000E+01  0.50000000000E+01 0.  0.
     100001    1    1    2    0    0 -0.16103101035E-01  0.85905386063E-02  0.12918795745E-01  0.50000500000E+01  0.50000000000E+01 0.  0.
</event>
<event>
 4    1  0.4919875E-001  0.5000050E+01  0.7818608E-02  0.2136455E+00
        -11   -1    0    0    0    0  0.00000000000E+00  0.00000000000E+00  0.50000499739E+01  0.50000500000E+01  0.51100000000E-03 0.  1.
         11   -1    0    0    0    0 -0.00000000000E+00 -0.00000000000E+00 -0.50000499739E+01  0.50000500000E+01  0.51100000000E-03 0. -1.
     100001    1    1    2    0    0  0.16805812261E-01 -0.16311303709E-03  0.14749256536E-01  0.50000500000E+01  0.50000000000E+01 0.  1.
     100001    1    1    2    0    0 -0.16805812261E-01  0.16311303709E-03 -0.14749256536E-01  0.50000500000E+01  0.50000000000E+01 0.  1.
</event>
<event>
 4    1  0.4919875E-001  0.5000050E+01  0.7818608E-02  0.2136455E+00
        -11   -1    0    0    0    0  0.00000000000E+00  0.00000000000E+00  0.50000499739E+01  0.50000500000E+01  0.51100000000E-03 0.  1.
         11   -1    0    0    0    0 -0.00000000000E+00 -0.00000000000E+00 -0.50000499739E+01  0.50000500000E+01  0.51100000000E-03 0. -1.
     100001    1    1    2    0    0 -0.10170388257E-01 -0.17065383077E-01 -0.10263449864E-01  0.50000500000E+01  0.50000000000E+01 0. -1.
     100001    1    1    2    0    0  0.10170388257E-01  0.17065383077E-01  0.10263449864E-01  0.50000500000E+01  0.50000000000E+01 0.  1.
</event>
<event>
 4    1  0.4919875E-001  0.5000050E+01  0.7818608E-02  0.2136455E+00
        -11   -1    0    0    0    0  0.00000000000E+00  0.00000000000E+00  0.50000499739E+01  0.50000500000E+01  0.51100000000E-03 0. -1.
         11   -1    0    0    0    0 -0.00000000000E+00 -0.00000000000E+00 -0.50000499739E+01  0.50000500000E+01  0.51100000000E-03 0.  1.
     100001    1    1    2    0    0 -0.11288460571E-01 -0.92612843341E-02  0.16935222774E-01  0.50000500000E+01  0.50000000000E+01 0. -1.
     100001    1    1    2    0    0  0.11288460571E-01  0.92612843341E-02 -0.16935222774E-01  0.50000500000E+01  0.50000000000E+01 0.  1.
</event>
<event>
 4    1  0.4919875E-001  0.5000050E+01  0.7818608E-02  0.2136455E+00
        -11   -1    0    0    0    0  0.00000000000E+00  0.00000000000E+00  0.50000499739E+01  0.50000500000E+01  0.51100000000E-03 0. -1.
         11   -1    0    0    0    0 -0.00000000000E+00 -0.00000000000E+00 -0.50000499739E+01  0.50000500000E+01  0.51100000000E-03 0.  1.
     100001    1    1    2    0    0 -0.31423360645E-02 -0.18619688621E-01 -0.11976452717E-01  0.50000500000E+01  0.50000000000E+01 0. -1.
     100001    1    1    2    0    0  0.31423360645E-02  0.18619688621E-01  0.11976452717E-01  0.50000500000E+01  0.50000000000E+01 0.  1.
</event>
<event>
 4    1  0.4919875E-001  0.5000050E+01  0.7818608E-02  0.2136455E+00
        -11   -1    0    0    0    0  0.00000000000E+00  0.00000000000E+00  0.50000499739E+01  0.50000500000E+01  0.51100000000E-03 0.  1.
         11   -1    0    0    0    0 -0.00000000000E+00 -0.00000000000E+00 -0.50000499739E+01  0.50000500000E+01  0.51100000000E-03 0. -1.
     100001    1    1    2    0    0  0.17178749587E-01  0.13256048931E-01  0.54009470817E-02  0.50000500000E+01  0.50000000000E+01 0.  1.
     100001    1    1    2    0    0 -0.17178749587E-01 -0.13256048931E-01 -0.54009470817E-02  0.50000500000E+01  0.50000000000E+01 0. -1.
</event>
<event>
 4    1  0.4919875E-001  0.5000050E+01  0.7818608E-02  0.2136455E+00
        -11   -1    0    0    0    0  0.00000000000E+00  0.00000000000E+00  0.50000499739E+01  0.50000500000E+01  0.51100000000E-03 0. -1.
         11   -1    0    0    0    0 -0.00000000000E+00 -0.00000000000E+00 -0.50000499739E+01  0.50000500000E+01  0.51100000000E-03 0.  1.
     100001    1    1    2    0    0  0.86744466021E-02 -0.16498532739E-01  0.12351311413E-01  0.50000500000E+01  0.50000000000E+01 0. -1.
     100001    1    1    2    0    0 -0.86744466021E-02  0.16498532739E-01 -0.12351311413E-01  0.50000500000E+01  0.50000000000E+01 0.  1.
</event>
<event>
 4    1  0.4919875E-001  0.5000050E+01  0.7818608E-02  0.2136455E+00
        -11   -1    0    0    0    0  0.00000000000E+00  0.00000000000E+00  0.50000499739E+01  0.50000500000E+01  0.51100000000E-03 0. -1.
         11   -1    0    0    0    0 -0.00000000000E+00 -0.00000000000E+00 -0.50000499739E+01  0.50000500000E+01  0.51100000000E-03 0.  1.
     100001    1    1    2    0    0  0.17784170709E-01 -0.13353149876E-01 -0.23279090593E-02  0.50000500000E+01  0.50000000000E+01 0.  1.
     100001    1    1    2    0    0 -0.17784170709E-01  0.13353149876E-01  0.23279090593E-02  0.50000500000E+01  0.50000000000E+01 0. -1.
</event>
<event>
 4    1  0.4919875E-001  0.5000050E+01  0.7818608E-02  0.2136455E+00
        -11   -1    0    0    0    0  0.00000000000E+00  0.00000000000E+00  0.50000499739E+01  0.50000500000E+01  0.51100000000E-03 0. -1.
         11   -1    0    0    0    0 -0.00000000000E+00 -0.00000000000E+00 -0.50000499739E+01  0.50000500000E+01  0.51100000000E-03 0.  1.
     100001    1    1    2    0    0 -0.19146937610E-01  0.57955157512E-02 -0.99904593160E-02  0.50000500000E+01  0.50000000000E+01 0.  1.
     100001    1    1    2    0    0  0.19146937610E-01 -0.57955157512E-02  0.99904593160E-02  0.50000500000E+01  0.50000000000E+01 0. -1.
</event>
<event>
 4    1  0.4919875E-001  0.5000050E+01  0.7818608E-02  0.2136455E+00
        -11   -1    0    0    0    0  0.00000000000E+00  0.00000000000E+00  0.50000499739E+01  0.50000500000E+01  0.51100000000E-03 0.  1.
         11   -1    0    0    0    0 -0.00000000000E+00 -0.00000000000E+00 -0.50000499739E+01  0.50000500000E+01  0.51100000000E-03 0. -1.
     100001    1    1    2    0    0  0.43379672530E-03 -0.19106637991E-01  0.11608217136E-01  0.50000500000E+01  0.50000000000E+01 0.  1.
     100001    1    1    2    0    0 -0.43379672530E-03  0.19106637991E-01 -0.11608217136E-01  0.50000500000E+01  0.50000000000E+01 0. -1.
</event>
<event>
 4    1  0.4919875E-001  0.5000050E+01  0.7818608E-02  0.2136455E+00
        -11   -1    0    0    0    0  0.00000000000E+00  0.00000000000E+00  0.50000499739E+01  0.50000500000E+01  0.51100000000E-03 0. -1.
         11   -1    0    0    0    0 -0.00000000000E+00 -0.00000000000E+00 -0.50000499739E+01  0.50000500000E+01  0.51100000000E-03 0.  1.
     100001    1    1    2    0    0 -0.21389016127E-01  0.62690858844E-02 -0.17919406443E-02  0.50000500000E+01  0.50000000000E+01 0. -1.
     100001    1    1    2    0    0  0.21389016127E-01 -0.62690858844E-02  0.17919406443E-02  0.50000500000E+01  0.50000000000E+01 0.  0.
</event>
<event>
 4    1  0.4919875E-001  0.5000050E+01  0.7818608E-02  0.2136455E+00
        -11   -1    0    0    0    0  0.00000000000E+00  0.00000000000E+00  0.50000499739E+01  0.50000500000E+01  0.51100000000E-03 0.  1.
         11   -1    0    0    0    0 -0.00000000000E+00 -0.00000000000E+00 -0.50000499739E+01  0.50000500000E+01  0.51100000000E-03 0. -1.
     100001    1    1    2    0    0 -0.11525838377E-01 -0.13957461747E-01 -0.13128092447E-01  0.50000500000E+01  0.50000000000E+01 0. -1.
     100001    1    1    2    0    0  0.11525838377E-01  0.13957461747E-01  0.13128092447E-01  0.50000500000E+01  0.50000000000E+01 0.  1.
</event>
<event>
 4    1  0.4919875E-001  0.5000050E+01  0.7818608E-02  0.2136455E+00
        -11   -1    0    0    0    0  0.00000000000E+00  0.00000000000E+00  0.50000499739E+01  0.50000500000E+01  0.51100000000E-03 0.  1.
         11   -1    0    0    0    0 -0.00000000000E+00 -0.00000000000E+00 -0.50000499739E+01  0.50000500000E+01  0.51100000000E-03 0. -1.
     100001    1    1    2    0    0 -0.15759769111E-02  0.17625348495E-01 -0.13669889802E-01  0.50000500000E+01  0.50000000000E+01 0. -1.
     100001    1    1    2    0    0  0.15759769111E-02 -0.17625348495E-01  0.13669889802E-01  0.50000500000E+01  0.50000000000E+01 0.  1.
</event>
<event>
 4    1  0.4919875E-001  0.5000050E+01  0.7818608E-02  0.2136455E+00
        -11   -1    0    0    0    0  0.00000000000E+00  0.00000000000E+00  0.50000499739E+01  0.50000500000E+01  0.51100000000E-03 0.  1.
         11   -1    0    0    0    0 -0.00000000000E+00 -0.00000000000E+00 -0.50000499739E+01  0.50000500000E+01  0.51100000000E-03 0. -1.
     100001    1    1    2    0    0 -0.19432817610E-01 -0.10606505308E-01 -0.31416786755E-02  0.50000500000E+01  0.50000000000E+01 0. -1.
     100001    1    1    2    0    0  0.19432817610E-01  0.10606505308E-01  0.31416786755E-02  0.50000500000E+01  0.50000000000E+01 0.  0.
</event>
<event>
 4    1  0.4919875E-001  0.5000050E+01  0.7818608E-02  0.2136455E+00
        -11   -1    0    0    0    0  0.00000000000E+00  0.00000000000E+00  0.50000499739E+01  0.50000500000E+01  0.51100000000E-03 0.  1.
         11   -1    0    0    0    0 -0.00000000000E+00 -0.00000000000E+00 -0.50000499739E+01  0.50000500000E+01  0.51100000000E-03 0. -1.
     100001    1    1    2    0    0 -0.13862611126E-01 -0.17414756933E-01 -0.21346554078E-02  0.50000500000E+01  0.50000000000E+01 0. -1.
     100001    1    1    2    0    0  0.13862611126E-01  0.17414756933E-01  0.21346554078E-02  0.50000500000E+01  0.50000000000E+01 0.  1.
</event>
<event>
 4    1  0.4919875E-001  0.5000050E+01  0.7818608E-02  0.2136455E+00
        -11   -1    0    0    0    0  0.00000000000E+00  0.00000000000E+00  0.50000499739E+01  0.50000500000E+01  0.51100000000E-03 0.  1.
         11   -1    0    0    0    0 -0.00000000000E+00 -0.00000000000E+00 -0.50000499739E+01  0.50000500000E+01  0.51100000000E-03 0. -1.
     100001    1    1    2    0    0  0.73949904193E-02  0.11818797595E-01 -0.17482352247E-01  0.50000500000E+01  0.50000000000E+01 0.  1.
     100001    1    1    2    0    0 -0.73949904193E-02 -0.11818797595E-01  0.17482352247E-01  0.50000500000E+01  0.50000000000E+01 0.  0.
</event>
<event>
 4    1  0.4919875E-001  0.5000050E+01  0.7818608E-02  0.2136455E+00
        -11   -1    0    0    0    0  0.00000000000E+00  0.00000000000E+00  0.50000499739E+01  0.50000500000E+01  0.51100000000E-03 0.  1.
         11   -1    0    0    0    0 -0.00000000000E+00 -0.00000000000E+00 -0.50000499739E+01  0.50000500000E+01  0.51100000000E-03 0. -1.
     100001    1    1    2    0    0 -0.43786449036E-02 -0.16756725354E-01 -0.14143624862E-01  0.50000500000E+01  0.50000000000E+01 0. -1.
     100001    1    1    2    0    0  0.43786449036E-02  0.16756725354E-01  0.14143624862E-01  0.50000500000E+01  0.50000000000E+01 0.  1.
</event>
<event>
 4    1  0.4919875E-001  0.5000050E+01  0.7818608E-02  0.2136455E+00
        -11   -1    0    0    0    0  0.00000000000E+00  0.00000000000E+00  0.50000499739E+01  0.50000500000E+01  0.51100000000E-03 0.  1.
         11   -1    0    0    0    0 -0.00000000000E+00 -0.00000000000E+00 -0.50000499739E+01  0.50000500000E+01  0.51100000000E-03 0. -1.
     100001    1    1    2    0    0  0.15017621734E-01  0.16520990546E-01  0.12370969326E-02  0.50000500000E+01  0.50000000000E+01 0.  0.
     100001    1    1    2    0    0 -0.15017621734E-01 -0.16520990546E-01 -0.12370969326E-02  0.50000500000E+01  0.50000000000E+01 0. -1.
</event>
<event>
 4    1  0.4919875E-001  0.5000050E+01  0.7818608E-02  0.2136455E+00
        -11   -1    0    0    0    0  0.00000000000E+00  0.00000000000E+00  0.50000499739E+01  0.50000500000E+01  0.51100000000E-03 0. -1.
         11   -1    0    0    0    0 -0.00000000000E+00 -0.00000000000E+00 -0.50000499739E+01  0.50000500000E+01  0.51100000000E-03 0.  1.
     100001    1    1    2    0    0  0.12280795897E-02  0.17269370252E-01  0.14151437087E-01  0.50000500000E+01  0.50000000000E+01 0. -1.
     100001    1    1    2    0    0 -0.12280795897E-02 -0.17269370252E-01 -0.14151437087E-01  0.50000500000E+01  0.50000000000E+01 0.  1.
</event>
<event>
 4    1  0.4919875E-001  0.5000050E+01  0.7818608E-02  0.2136455E+00
        -11   -1    0    0    0    0  0.00000000000E+00  0.00000000000E+00  0.50000499739E+01  0.50000500000E+01  0.51100000000E-03 0.  1.
         11   -1    0    0    0    0 -0.00000000000E+00 -0.00000000000E+00 -0.50000499739E+01  0.50000500000E+01  0.51100000000E-03 0. -1.
     100001    1    1    2    0    0 -0.14994379493E-01 -0.12017827085E-01 -0.11434286849E-01  0.50000500000E+01  0.50000000000E+01 0. -1.
     100001    1    1    2    0    0  0.14994379493E-01  0.12017827085E-01  0.11434286849E-01  0.50000500000E+01  0.50000000000E+01 0.  1.
</event>
<event>
 4    1  0.4919875E-001  0.5000050E+01  0.7818608E-02  0.2136455E+00
        -11   -1    0    0    0    0  0.00000000000E+00  0.00000000000E+00  0.50000499739E+01  0.50000500000E+01  0.51100000000E-03 0.  1.
         11   -1    0    0    0    0 -0.00000000000E+00 -0.00000000000E+00 -0.50000499739E+01  0.50000500000E+01  0.51100000000E-03 0. -1.
     100001    1    1    2    0    0  0.76710526981E-04  0.16830960456E-01  0.14721256251E-01  0.50000500000E+01  0.50000000000E+01 0. -1.
     100001    1    1    2    0    0 -0.76710526981E-04 -0.16830960456E-01 -0.14721256251E-01  0.50000500000E+01  0.50000000000E+01 0.  0.
</event>
<event>
 4    1  0.4919875E-001  0.5000050E+01  0.7818608E-02  0.2136455E+00
        -11   -1    0    0    0    0  0.00000000000E+00  0.00000000000E+00  0.50000499739E+01  0.50000500000E+01  0.51100000000E-03 0.  1.
         11   -1    0    0    0    0 -0.00000000000E+00 -0.00000000000E+00 -0.50000499739E+01  0.50000500000E+01  0.51100000000E-03 0. -1.
     100001    1    1    2    0    0  0.13497163156E-01 -0.15561660321E-01  0.86984949725E-02  0.50000500000E+01  0.50000000000E+01 0.  0.
     100001    1    1    2    0    0 -0.13497163156E-01  0.15561660321E-01 -0.86984949725E-02  0.50000500000E+01  0.50000000000E+01 0.  0.
</event>
<event>
 4    1  0.4919875E-001  0.5000050E+01  0.7818608E-02  0.2136455E+00
        -11   -1    0    0    0    0  0.00000000000E+00  0.00000000000E+00  0.50000499739E+01  0.50000500000E+01  0.51100000000E-03 0.  1.
         11   -1    0    0    0    0 -0.00000000000E+00 -0.00000000000E+00 -0.50000499739E+01  0.50000500000E+01  0.51100000000E-03 0. -1.
     100001    1    1    2    0    0  0.13467436433E-01 -0.17688523992E-01 -0.23972431846E-02  0.50000500000E+01  0.50000000000E+01 0.  1.
     100001    1    1    2    0    0 -0.13467436433E-01  0.17688523992E-01  0.23972431846E-02  0.50000500000E+01  0.50000000000E+01 0. -1.
</event>
<event>
 4    1  0.4919875E-001  0.5000050E+01  0.7818608E-02  0.2136455E+00
        -11   -1    0    0    0    0  0.00000000000E+00  0.00000000000E+00  0.50000499739E+01  0.50000500000E+01  0.51100000000E-03 0.  1.
         11   -1    0    0    0    0 -0.00000000000E+00 -0.00000000000E+00 -0.50000499739E+01  0.50000500000E+01  0.51100000000E-03 0. -1.
     100001    1    1    2    0    0  0.22091807620E-01  0.29957111391E-02 -0.17263403082E-02  0.50000500000E+01  0.50000000000E+01 0. -1.
     100001    1    1    2    0    0 -0.22091807620E-01 -0.29957111391E-02  0.17263403082E-02  0.50000500000E+01  0.50000000000E+01 0.  0.
</event>
<event>
 4    1  0.4919875E-001  0.5000050E+01  0.7818608E-02  0.2136455E+00
        -11   -1    0    0    0    0  0.00000000000E+00  0.00000000000E+00  0.50000499739E+01  0.50000500000E+01  0.51100000000E-03 0.  1.
         11   -1    0    0    0    0 -0.00000000000E+00 -0.00000000000E+00 -0.50000499739E+01  0.50000500000E+01  0.51100000000E-03 0. -1.
     100001    1    1    2    0    0  0.96540283126E-02 -0.19912346951E-01  0.32094666595E-02  0.50000500000E+01  0.50000000000E+01 0.  1.
     100001    1    1    2    0    0 -0.96540283126E-02  0.19912346951E-01 -0.32094666595E-02  0.50000500000E+01  0.50000000000E+01 0. -1.
</event>
<event>
 4    1  0.4919875E-001  0.5000050E+01  0.7818608E-02  0.2136455E+00
        -11   -1    0    0    0    0  0.00000000000E+00  0.00000000000E+00  0.50000499739E+01  0.50000500000E+01  0.51100000000E-03 0. -1.
         11   -1    0    0    0    0 -0.00000000000E+00 -0.00000000000E+00 -0.50000499739E+01  0.50000500000E+01  0.51100000000E-03 0.  1.
     100001    1    1    2    0    0 -0.97361378777E-02 -0.70360253481E-02 -0.18860129017E-01  0.50000500000E+01  0.50000000000E+01 0.  0.
     100001    1    1    2    0    0  0.97361378777E-02  0.70360253481E-02  0.18860129017E-01  0.50000500000E+01  0.50000000000E+01 0.  0.
</event>
<event>
 4    1  0.4919875E-001  0.5000050E+01  0.7818608E-02  0.2136455E+00
        -11   -1    0    0    0    0  0.00000000000E+00  0.00000000000E+00  0.50000499739E+01  0.50000500000E+01  0.51100000000E-03 0.  1.
         11   -1    0    0    0    0 -0.00000000000E+00 -0.00000000000E+00 -0.50000499739E+01  0.50000500000E+01  0.51100000000E-03 0. -1.
     100001    1    1    2    0    0 -0.62971258206E-02 -0.20166620700E-01  0.73250335098E-02  0.50000500000E+01  0.50000000000E+01 0. -1.
     100001    1    1    2    0    0  0.62971258206E-02  0.20166620700E-01 -0.73250335098E-02  0.50000500000E+01  0.50000000000E+01 0.  0.
</event>
<event>
 4    1  0.4919875E-001  0.5000050E+01  0.7818608E-02  0.2136455E+00
        -11   -1    0    0    0    0  0.00000000000E+00  0.00000000000E+00  0.50000499739E+01  0.50000500000E+01  0.51100000000E-03 0. -1.
         11   -1    0    0    0    0 -0.00000000000E+00 -0.00000000000E+00 -0.50000499739E+01  0.50000500000E+01  0.51100000000E-03 0.  1.
     100001    1    1    2    0    0 -0.12462187883E-01  0.17507956754E-01  0.61780112863E-02  0.50000500000E+01  0.50000000000E+01 0. -1.
     100001    1    1    2    0    0  0.12462187883E-01 -0.17507956754E-01 -0.61780112863E-02  0.50000500000E+01  0.50000000000E+01 0.  1.
</event>
<event>
 4    1  0.4919875E-001  0.5000050E+01  0.7818608E-02  0.2136455E+00
        -11   -1    0    0    0    0  0.00000000000E+00  0.00000000000E+00  0.50000499739E+01  0.50000500000E+01  0.51100000000E-03 0. -1.
         11   -1    0    0    0    0 -0.00000000000E+00 -0.00000000000E+00 -0.50000499739E+01  0.50000500000E+01  0.51100000000E-03 0.  1.
     100001    1    1    2    0    0  0.21203388258E-01 -0.48532496072E-02 -0.51831259521E-02  0.50000500000E+01  0.50000000000E+01 0.  1.
     100001    1    1    2    0    0 -0.21203388258E-01  0.48532496072E-02  0.51831259521E-02  0.50000500000E+01  0.50000000000E+01 0. -1.
</event>
<event>
 4    1  0.4919875E-001  0.5000050E+01  0.7818608E-02  0.2136455E+00
        -11   -1    0    0    0    0  0.00000000000E+00  0.00000000000E+00  0.50000499739E+01  0.50000500000E+01  0.51100000000E-03 0.  1.
         11   -1    0    0    0    0 -0.00000000000E+00 -0.00000000000E+00 -0.50000499739E+01  0.50000500000E+01  0.51100000000E-03 0. -1.
     100001    1    1    2    0    0 -0.56547969226E-02  0.14345954563E-01  0.16193188674E-01  0.50000500000E+01  0.50000000000E+01 0.  1.
     100001    1    1    2    0    0  0.56547969226E-02 -0.14345954563E-01 -0.16193188674E-01  0.50000500000E+01  0.50000000000E+01 0. -1.
</event>
<event>
 4    1  0.4919875E-001  0.5000050E+01  0.7818608E-02  0.2136455E+00
        -11   -1    0    0    0    0  0.00000000000E+00  0.00000000000E+00  0.50000499739E+01  0.50000500000E+01  0.51100000000E-03 0. -1.
         11   -1    0    0    0    0 -0.00000000000E+00 -0.00000000000E+00 -0.50000499739E+01  0.50000500000E+01  0.51100000000E-03 0.  1.
     100001    1    1    2    0    0  0.23027141566E-02  0.22020236828E-01 -0.31319606586E-02  0.50000500000E+01  0.50000000000E+01 0.  0.
     100001    1    1    2    0    0 -0.23027141566E-02 -0.22020236828E-01  0.31319606586E-02  0.50000500000E+01  0.50000000000E+01 0. -1.
</event>
<event>
 4    1  0.4919875E-001  0.5000050E+01  0.7818608E-02  0.2136455E+00
        -11   -1    0    0    0    0  0.00000000000E+00  0.00000000000E+00  0.50000499739E+01  0.50000500000E+01  0.51100000000E-03 0. -1.
         11   -1    0    0    0    0 -0.00000000000E+00 -0.00000000000E+00 -0.50000499739E+01  0.50000500000E+01  0.51100000000E-03 0.  1.
     100001    1    1    2    0    0 -0.91912436605E-02 -0.19752774464E-01 -0.50350214439E-02  0.50000500000E+01  0.50000000000E+01 0.  1.
     100001    1    1    2    0    0  0.91912436605E-02  0.19752774464E-01  0.50350214439E-02  0.50000500000E+01  0.50000000000E+01 0. -1.
</event>
<event>
 4    1  0.4919875E-001  0.5000050E+01  0.7818608E-02  0.2136455E+00
        -11   -1    0    0    0    0  0.00000000000E+00  0.00000000000E+00  0.50000499739E+01  0.50000500000E+01  0.51100000000E-03 0.  1.
         11   -1    0    0    0    0 -0.00000000000E+00 -0.00000000000E+00 -0.50000499739E+01  0.50000500000E+01  0.51100000000E-03 0. -1.
     100001    1    1    2    0    0 -0.10917454295E-01  0.25859340143E-03  0.19512683597E-01  0.50000500000E+01  0.50000000000E+01 0.  1.
     100001    1    1    2    0    0  0.10917454295E-01 -0.25859340143E-03 -0.19512683597E-01  0.50000500000E+01  0.50000000000E+01 0.  0.
</event>
<event>
 4    1  0.4919875E-001  0.5000050E+01  0.7818608E-02  0.2136455E+00
        -11   -1    0    0    0    0  0.00000000000E+00  0.00000000000E+00  0.50000499739E+01  0.50000500000E+01  0.51100000000E-03 0.  1.
         11   -1    0    0    0    0 -0.00000000000E+00 -0.00000000000E+00 -0.50000499739E+01  0.50000500000E+01  0.51100000000E-03 0. -1.
     100001    1    1    2    0    0 -0.21926803016E-01 -0.13096799795E-02 -0.41836046449E-02  0.50000500000E+01  0.50000000000E+01 0.  0.
     100001    1    1    2    0    0  0.21926803016E-01  0.13096799795E-02  0.41836046449E-02  0.50000500000E+01  0.50000000000E+01 0.  1.
</event>
<event>
 4    1  0.4919875E-001  0.5000050E+01  0.7818608E-02  0.2136455E+00
        -11   -1    0    0    0    0  0.00000000000E+00  0.00000000000E+00  0.50000499739E+01  0.50000500000E+01  0.51100000000E-03 0. -1.
         11   -1    0    0    0    0 -0.00000000000E+00 -0.00000000000E+00 -0.50000499739E+01  0.50000500000E+01  0.51100000000E-03 0.  1.
     100001    1    1    2    0    0 -0.10314715767E-01 -0.20097453854E-02 -0.19737529281E-01  0.50000500000E+01  0.50000000000E+01 0.  0.
     100001    1    1    2    0    0  0.10314715767E-01  0.20097453854E-02  0.19737529281E-01  0.50000500000E+01  0.50000000000E+01 0. -1.
</event>
<event>
 4    1  0.4919875E-001  0.5000050E+01  0.7818608E-02  0.2136455E+00
        -11   -1    0    0    0    0  0.00000000000E+00  0.00000000000E+00  0.50000499739E+01  0.50000500000E+01  0.51100000000E-03 0. -1.
         11   -1    0    0    0    0 -0.00000000000E+00 -0.00000000000E+00 -0.50000499739E+01  0.50000500000E+01  0.51100000000E-03 0.  1.
     100001    1    1    2    0    0  0.10662664139E-01  0.67700839137E-03 -0.19643109558E-01  0.50000500000E+01  0.50000000000E+01 0.  0.
     100001    1    1    2    0    0 -0.10662664139E-01 -0.67700839137E-03  0.19643109558E-01  0.50000500000E+01  0.50000000000E+01 0. -1.
</event>
<event>
 4    1  0.4919875E-001  0.5000050E+01  0.7818608E-02  0.2136455E+00
        -11   -1    0    0    0    0  0.00000000000E+00  0.00000000000E+00  0.50000499739E+01  0.50000500000E+01  0.51100000000E-03 0.  1.
         11   -1    0    0    0    0 -0.00000000000E+00 -0.00000000000E+00 -0.50000499739E+01  0.50000500000E+01  0.51100000000E-03 0. -1.
     100001    1    1    2    0    0 -0.20819855602E-01  0.46616092798E-02 -0.66936919273E-02  0.50000500000E+01  0.50000000000E+01 0.  0.
     100001    1    1    2    0    0  0.20819855602E-01 -0.46616092798E-02  0.66936919273E-02  0.50000500000E+01  0.50000000000E+01 0.  0.
</event>
<event>
 4    1  0.4919875E-001  0.5000050E+01  0.7818608E-02  0.2136455E+00
        -11   -1    0    0    0    0  0.00000000000E+00  0.00000000000E+00  0.50000499739E+01  0.50000500000E+01  0.51100000000E-03 0. -1.
         11   -1    0    0    0    0 -0.00000000000E+00 -0.00000000000E+00 -0.50000499739E+01  0.50000500000E+01  0.51100000000E-03 0.  1.
     100001    1    1    2    0    0  0.17261002055E-01  0.10378548173E-01 -0.97131892745E-02  0.50000500000E+01  0.50000000000E+01 0.  1.
     100001    1    1    2    0    0 -0.17261002055E-01 -0.10378548173E-01  0.97131892745E-02  0.50000500000E+01  0.50000000000E+01 0. -1.
</event>
<event>
 4    1  0.4919875E-001  0.5000050E+01  0.7818608E-02  0.2136455E+00
        -11   -1    0    0    0    0  0.00000000000E+00  0.00000000000E+00  0.50000499739E+01  0.50000500000E+01  0.51100000000E-03 0. -1.
         11   -1    0    0    0    0 -0.00000000000E+00 -0.00000000000E+00 -0.50000499739E+01  0.50000500000E+01  0.51100000000E-03 0.  1.
     100001    1    1    2    0    0 -0.14634484465E-01  0.13745373130E-01  0.98437331304E-02  0.50000500000E+01  0.50000000000E+01 0. -1.
     100001    1    1    2    0    0  0.14634484465E-01 -0.13745373130E-01 -0.98437331304E-02  0.50000500000E+01  0.50000000000E+01 0.  1.
</event>
<event>
 4    1  0.4919875E-001  0.5000050E+01  0.7818608E-02  0.2136455E+00
        -11   -1    0    0    0    0  0.00000000000E+00  0.00000000000E+00  0.50000499739E+01  0.50000500000E+01  0.51100000000E-03 0.  1.
         11   -1    0    0    0    0 -0.00000000000E+00 -0.00000000000E+00 -0.50000499739E+01  0.50000500000E+01  0.51100000000E-03 0. -1.
     100001    1    1    2    0    0  0.17074827771E-01 -0.85890704588E-02 -0.11605198199E-01  0.50000500000E+01  0.50000000000E+01 0. -1.
     100001    1    1    2    0    0 -0.17074827771E-01  0.85890704588E-02  0.11605198199E-01  0.50000500000E+01  0.50000000000E+01 0.  1.
</event>
<event>
 4    1  0.4919875E-001  0.5000050E+01  0.7818608E-02  0.2136455E+00
        -11   -1    0    0    0    0  0.00000000000E+00  0.00000000000E+00  0.50000499739E+01  0.50000500000E+01  0.51100000000E-03 0. -1.
         11   -1    0    0    0    0 -0.00000000000E+00 -0.00000000000E+00 -0.50000499739E+01  0.50000500000E+01  0.51100000000E-03 0.  1.
     100001    1    1    2    0    0 -0.21461497342E-01  0.60008639106E-02 -0.18428955968E-02  0.50000500000E+01  0.50000000000E+01 0. -1.
     100001    1    1    2    0    0  0.21461497342E-01 -0.60008639106E-02  0.18428955968E-02  0.50000500000E+01  0.50000000000E+01 0.  1.
</event>
<event>
 4    1  0.4919875E-001  0.5000050E+01  0.7818608E-02  0.2136455E+00
        -11   -1    0    0    0    0  0.00000000000E+00  0.00000000000E+00  0.50000499739E+01  0.50000500000E+01  0.51100000000E-03 0.  1.
         11   -1    0    0    0    0 -0.00000000000E+00 -0.00000000000E+00 -0.50000499739E+01  0.50000500000E+01  0.51100000000E-03 0. -1.
     100001    1    1    2    0    0  0.17710910620E-01 -0.57284915603E-02  0.12389936621E-01  0.50000500000E+01  0.50000000000E+01 0.  1.
     100001    1    1    2    0    0 -0.17710910620E-01  0.57284915603E-02 -0.12389936621E-01  0.50000500000E+01  0.50000000000E+01 0.  1.
</event>
<event>
 4    1  0.4919875E-001  0.5000050E+01  0.7818608E-02  0.2136455E+00
        -11   -1    0    0    0    0  0.00000000000E+00  0.00000000000E+00  0.50000499739E+01  0.50000500000E+01  0.51100000000E-03 0. -1.
         11   -1    0    0    0    0 -0.00000000000E+00 -0.00000000000E+00 -0.50000499739E+01  0.50000500000E+01  0.51100000000E-03 0.  1.
     100001    1    1    2    0    0 -0.21260760165E-01 -0.13222489399E-03  0.69256836328E-02  0.50000500000E+01  0.50000000000E+01 0.  1.
     100001    1    1    2    0    0  0.21260760165E-01  0.13222489399E-03 -0.69256836328E-02  0.50000500000E+01  0.50000000000E+01 0. -1.
</event>
<event>
 4    1  0.4919875E-001  0.5000050E+01  0.7818608E-02  0.2136455E+00
        -11   -1    0    0    0    0  0.00000000000E+00  0.00000000000E+00  0.50000499739E+01  0.50000500000E+01  0.51100000000E-03 0. -1.
         11   -1    0    0    0    0 -0.00000000000E+00 -0.00000000000E+00 -0.50000499739E+01  0.50000500000E+01  0.51100000000E-03 0.  1.
     100001    1    1    2    0    0 -0.20462932274E-02  0.20353788173E-01  0.90298666118E-02  0.50000500000E+01  0.50000000000E+01 0.  0.
     100001    1    1    2    0    0  0.20462932274E-02 -0.20353788173E-01 -0.90298666118E-02  0.50000500000E+01  0.50000000000E+01 0. -1.
</event>
<event>
 4    1  0.4919875E-001  0.5000050E+01  0.7818608E-02  0.2136455E+00
        -11   -1    0    0    0    0  0.00000000000E+00  0.00000000000E+00  0.50000499739E+01  0.50000500000E+01  0.51100000000E-03 0. -1.
         11   -1    0    0    0    0 -0.00000000000E+00 -0.00000000000E+00 -0.50000499739E+01  0.50000500000E+01  0.51100000000E-03 0.  1.
     100001    1    1    2    0    0  0.11652439401E-01 -0.61659083322E-02 -0.18061138681E-01  0.50000500000E+01  0.50000000000E+01 0.  0.
     100001    1    1    2    0    0 -0.11652439401E-01  0.61659083322E-02  0.18061138681E-01  0.50000500000E+01  0.50000000000E+01 0.  0.
</event>
<event>
 4    1  0.4919875E-001  0.5000050E+01  0.7818608E-02  0.2136455E+00
        -11   -1    0    0    0    0  0.00000000000E+00  0.00000000000E+00  0.50000499739E+01  0.50000500000E+01  0.51100000000E-03 0.  1.
         11   -1    0    0    0    0 -0.00000000000E+00 -0.00000000000E+00 -0.50000499739E+01  0.50000500000E+01  0.51100000000E-03 0. -1.
     100001    1    1    2    0    0 -0.16685016707E-01  0.86463873783E-02  0.12118279695E-01  0.50000500000E+01  0.50000000000E+01 0. -1.
     100001    1    1    2    0    0  0.16685016707E-01 -0.86463873783E-02 -0.12118279695E-01  0.50000500000E+01  0.50000000000E+01 0.  0.
</event>
<event>
 4    1  0.4919875E-001  0.5000050E+01  0.7818608E-02  0.2136455E+00
        -11   -1    0    0    0    0  0.00000000000E+00  0.00000000000E+00  0.50000499739E+01  0.50000500000E+01  0.51100000000E-03 0.  1.
         11   -1    0    0    0    0 -0.00000000000E+00 -0.00000000000E+00 -0.50000499739E+01  0.50000500000E+01  0.51100000000E-03 0. -1.
     100001    1    1    2    0    0 -0.14741189967E-01  0.16277004011E-01  0.42141379642E-02  0.50000500000E+01  0.50000000000E+01 0.  1.
     100001    1    1    2    0    0  0.14741189967E-01 -0.16277004011E-01 -0.42141379642E-02  0.50000500000E+01  0.50000000000E+01 0.  0.
</event>
<event>
 4    1  0.4919875E-001  0.5000050E+01  0.7818608E-02  0.2136455E+00
        -11   -1    0    0    0    0  0.00000000000E+00  0.00000000000E+00  0.50000499739E+01  0.50000500000E+01  0.51100000000E-03 0. -1.
         11   -1    0    0    0    0 -0.00000000000E+00 -0.00000000000E+00 -0.50000499739E+01  0.50000500000E+01  0.51100000000E-03 0.  1.
     100001    1    1    2    0    0 -0.18865956576E-01 -0.11991615282E-01  0.52853136936E-03  0.50000500000E+01  0.50000000000E+01 0.  1.
     100001    1    1    2    0    0  0.18865956576E-01  0.11991615282E-01 -0.52853136936E-03  0.50000500000E+01  0.50000000000E+01 0. -1.
</event>
<event>
 4    1  0.4919875E-001  0.5000050E+01  0.7818608E-02  0.2136455E+00
        -11   -1    0    0    0    0  0.00000000000E+00  0.00000000000E+00  0.50000499739E+01  0.50000500000E+01  0.51100000000E-03 0. -1.
         11   -1    0    0    0    0 -0.00000000000E+00 -0.00000000000E+00 -0.50000499739E+01  0.50000500000E+01  0.51100000000E-03 0.  1.
     100001    1    1    2    0    0  0.65209612714E-02 -0.16710858640E-01 -0.13350159835E-01  0.50000500000E+01  0.50000000000E+01 0.  0.
     100001    1    1    2    0    0 -0.65209612714E-02  0.16710858640E-01  0.13350159835E-01  0.50000500000E+01  0.50000000000E+01 0.  0.
</event>
<event>
 4    1  0.4919875E-001  0.5000050E+01  0.7818608E-02  0.2136455E+00
        -11   -1    0    0    0    0  0.00000000000E+00  0.00000000000E+00  0.50000499739E+01  0.50000500000E+01  0.51100000000E-03 0. -1.
         11   -1    0    0    0    0 -0.00000000000E+00 -0.00000000000E+00 -0.50000499739E+01  0.50000500000E+01  0.51100000000E-03 0.  1.
     100001    1    1    2    0    0 -0.50415804778E-02 -0.13931265977E-01 -0.16748277361E-01  0.50000500000E+01  0.50000000000E+01 0.  0.
     100001    1    1    2    0    0  0.50415804778E-02  0.13931265977E-01  0.16748277361E-01  0.50000500000E+01  0.50000000000E+01 0.  0.
</event>
<event>
 4    1  0.4919875E-001  0.5000050E+01  0.7818608E-02  0.2136455E+00
        -11   -1    0    0    0    0  0.00000000000E+00  0.00000000000E+00  0.50000499739E+01  0.50000500000E+01  0.51100000000E-03 0.  1.
         11   -1    0    0    0    0 -0.00000000000E+00 -0.00000000000E+00 -0.50000499739E+01  0.50000500000E+01  0.51100000000E-03 0. -1.
     100001    1    1    2    0    0 -0.22343735322E-01  0.10933985316E-03  0.86489112524E-03  0.50000500000E+01  0.50000000000E+01 0. -1.
     100001    1    1    2    0    0  0.22343735322E-01 -0.10933985316E-03 -0.86489112524E-03  0.50000500000E+01  0.50000000000E+01 0.  1.
</event>
<event>
 4    1  0.4919875E-001  0.5000050E+01  0.7818608E-02  0.2136455E+00
        -11   -1    0    0    0    0  0.00000000000E+00  0.00000000000E+00  0.50000499739E+01  0.50000500000E+01  0.51100000000E-03 0.  1.
         11   -1    0    0    0    0 -0.00000000000E+00 -0.00000000000E+00 -0.50000499739E+01  0.50000500000E+01  0.51100000000E-03 0. -1.
     100001    1    1    2    0    0  0.57357098714E-02  0.18816225250E-01 -0.10632676032E-01  0.50000500000E+01  0.50000000000E+01 0. -1.
     100001    1    1    2    0    0 -0.57357098714E-02 -0.18816225250E-01  0.10632676032E-01  0.50000500000E+01  0.50000000000E+01 0.  1.
</event>
<event>
 4    1  0.4919875E-001  0.5000050E+01  0.7818608E-02  0.2136455E+00
        -11   -1    0    0    0    0  0.00000000000E+00  0.00000000000E+00  0.50000499739E+01  0.50000500000E+01  0.51100000000E-03 0. -1.
         11   -1    0    0    0    0 -0.00000000000E+00 -0.00000000000E+00 -0.50000499739E+01  0.50000500000E+01  0.51100000000E-03 0.  1.
     100001    1    1    2    0    0 -0.78283442746E-02  0.18292539840E-01  0.10203063859E-01  0.50000500000E+01  0.50000000000E+01 0. -1.
     100001    1    1    2    0    0  0.78283442746E-02 -0.18292539840E-01 -0.10203063859E-01  0.50000500000E+01  0.50000000000E+01 0. -1.
</event>
<event>
 4    1  0.4919875E-001  0.5000050E+01  0.7818608E-02  0.2136455E+00
        -11   -1    0    0    0    0  0.00000000000E+00  0.00000000000E+00  0.50000499739E+01  0.50000500000E+01  0.51100000000E-03 0. -1.
         11   -1    0    0    0    0 -0.00000000000E+00 -0.00000000000E+00 -0.50000499739E+01  0.50000500000E+01  0.51100000000E-03 0.  1.
     100001    1    1    2    0    0  0.45566562672E-02  0.60149970756E-02 -0.21048971325E-01  0.50000500000E+01  0.50000000000E+01 0.  1.
     100001    1    1    2    0    0 -0.45566562672E-02 -0.60149970756E-02  0.21048971325E-01  0.50000500000E+01  0.50000000000E+01 0.  1.
</event>
<event>
 4    1  0.4919875E-001  0.5000050E+01  0.7818608E-02  0.2136455E+00
        -11   -1    0    0    0    0  0.00000000000E+00  0.00000000000E+00  0.50000499739E+01  0.50000500000E+01  0.51100000000E-03 0.  1.
         11   -1    0    0    0    0 -0.00000000000E+00 -0.00000000000E+00 -0.50000499739E+01  0.50000500000E+01  0.51100000000E-03 0. -1.
     100001    1    1    2    0    0  0.83369949310E-02  0.18735959481E-01  0.89140808750E-02  0.50000500000E+01  0.50000000000E+01 0.  1.
     100001    1    1    2    0    0 -0.83369949310E-02 -0.18735959481E-01 -0.89140808750E-02  0.50000500000E+01  0.50000000000E+01 0. -1.
</event>
<event>
 4    1  0.4919875E-001  0.5000050E+01  0.7818608E-02  0.2136455E+00
        -11   -1    0    0    0    0  0.00000000000E+00  0.00000000000E+00  0.50000499739E+01  0.50000500000E+01  0.51100000000E-03 0.  1.
         11   -1    0    0    0    0 -0.00000000000E+00 -0.00000000000E+00 -0.50000499739E+01  0.50000500000E+01  0.51100000000E-03 0. -1.
     100001    1    1    2    0    0  0.15433806639E-01  0.39574737581E-02  0.15688802188E-01  0.50000500000E+01  0.50000000000E+01 0. -1.
     100001    1    1    2    0    0 -0.15433806639E-01 -0.39574737581E-02 -0.15688802188E-01  0.50000500000E+01  0.50000000000E+01 0. -1.
</event>
<event>
 4    1  0.4919875E-001  0.5000050E+01  0.7818608E-02  0.2136455E+00
        -11   -1    0    0    0    0  0.00000000000E+00  0.00000000000E+00  0.50000499739E+01  0.50000500000E+01  0.51100000000E-03 0.  1.
         11   -1    0    0    0    0 -0.00000000000E+00 -0.00000000000E+00 -0.50000499739E+01  0.50000500000E+01  0.51100000000E-03 0. -1.
     100001    1    1    2    0    0 -0.81206999759E-02 -0.11676445777E-01  0.17254487704E-01  0.50000500000E+01  0.50000000000E+01 0.  1.
     100001    1    1    2    0    0  0.81206999759E-02  0.11676445777E-01 -0.17254487704E-01  0.50000500000E+01  0.50000000000E+01 0.  1.
</event>
<event>
 4    1  0.4919875E-001  0.5000050E+01  0.7818608E-02  0.2136455E+00
        -11   -1    0    0    0    0  0.00000000000E+00  0.00000000000E+00  0.50000499739E+01  0.50000500000E+01  0.51100000000E-03 0. -1.
         11   -1    0    0    0    0 -0.00000000000E+00 -0.00000000000E+00 -0.50000499739E+01  0.50000500000E+01  0.51100000000E-03 0.  1.
     100001    1    1    2    0    0  0.21799398301E-01  0.10677650322E-02  0.48629838131E-02  0.50000500000E+01  0.50000000000E+01 0. -1.
     100001    1    1    2    0    0 -0.21799398301E-01 -0.10677650322E-02 -0.48629838131E-02  0.50000500000E+01  0.50000000000E+01 0.  1.
</event>
<event>
 4    1  0.4919875E-001  0.5000050E+01  0.7818608E-02  0.2136455E+00
        -11   -1    0    0    0    0  0.00000000000E+00  0.00000000000E+00  0.50000499739E+01  0.50000500000E+01  0.51100000000E-03 0.  1.
         11   -1    0    0    0    0 -0.00000000000E+00 -0.00000000000E+00 -0.50000499739E+01  0.50000500000E+01  0.51100000000E-03 0. -1.
     100001    1    1    2    0    0  0.11004915622E-01 -0.28469497390E-02 -0.19255887653E-01  0.50000500000E+01  0.50000000000E+01 0.  0.
     100001    1    1    2    0    0 -0.11004915622E-01  0.28469497390E-02  0.19255887653E-01  0.50000500000E+01  0.50000000000E+01 0.  0.
</event>
<event>
 4    1  0.4919875E-001  0.5000050E+01  0.7818608E-02  0.2136455E+00
        -11   -1    0    0    0    0  0.00000000000E+00  0.00000000000E+00  0.50000499739E+01  0.50000500000E+01  0.51100000000E-03 0. -1.
         11   -1    0    0    0    0 -0.00000000000E+00 -0.00000000000E+00 -0.50000499739E+01  0.50000500000E+01  0.51100000000E-03 0.  1.
     100001    1    1    2    0    0  0.16750117076E-01  0.14188839650E-01 -0.42559261419E-02  0.50000500000E+01  0.50000000000E+01 0.  0.
     100001    1    1    2    0    0 -0.16750117076E-01 -0.14188839650E-01  0.42559261419E-02  0.50000500000E+01  0.50000000000E+01 0.  1.
</event>
<event>
 4    1  0.4919875E-001  0.5000050E+01  0.7818608E-02  0.2136455E+00
        -11   -1    0    0    0    0  0.00000000000E+00  0.00000000000E+00  0.50000499739E+01  0.50000500000E+01  0.51100000000E-03 0.  1.
         11   -1    0    0    0    0 -0.00000000000E+00 -0.00000000000E+00 -0.50000499739E+01  0.50000500000E+01  0.51100000000E-03 0. -1.
     100001    1    1    2    0    0  0.20841975609E-01  0.73658967734E-02  0.33701806239E-02  0.50000500000E+01  0.50000000000E+01 0.  1.
     100001    1    1    2    0    0 -0.20841975609E-01 -0.73658967734E-02 -0.33701806239E-02  0.50000500000E+01  0.50000000000E+01 0. -1.
</event>
<event>
 4    1  0.4919875E-001  0.5000050E+01  0.7818608E-02  0.2136455E+00
        -11   -1    0    0    0    0  0.00000000000E+00  0.00000000000E+00  0.50000499739E+01  0.50000500000E+01  0.51100000000E-03 0.  1.
         11   -1    0    0    0    0 -0.00000000000E+00 -0.00000000000E+00 -0.50000499739E+01  0.50000500000E+01  0.51100000000E-03 0. -1.
     100001    1    1    2    0    0  0.15280425194E-02  0.21578379943E-01  0.56604862948E-02  0.50000500000E+01  0.50000000000E+01 0. -1.
     100001    1    1    2    0    0 -0.15280425194E-02 -0.21578379943E-01 -0.56604862948E-02  0.50000500000E+01  0.50000000000E+01 0. -1.
</event>
<event>
 4    1  0.4919875E-001  0.5000050E+01  0.7818608E-02  0.2136455E+00
        -11   -1    0    0    0    0  0.00000000000E+00  0.00000000000E+00  0.50000499739E+01  0.50000500000E+01  0.51100000000E-03 0. -1.
         11   -1    0    0    0    0 -0.00000000000E+00 -0.00000000000E+00 -0.50000499739E+01  0.50000500000E+01  0.51100000000E-03 0.  1.
     100001    1    1    2    0    0 -0.53028034648E-02  0.20866924316E-01 -0.60377350887E-02  0.50000500000E+01  0.50000000000E+01 0.  1.
     100001    1    1    2    0    0  0.53028034648E-02 -0.20866924316E-01  0.60377350887E-02  0.50000500000E+01  0.50000000000E+01 0. -1.
</event>
<event>
 4    1  0.4919875E-001  0.5000050E+01  0.7818608E-02  0.2136455E+00
        -11   -1    0    0    0    0  0.00000000000E+00  0.00000000000E+00  0.50000499739E+01  0.50000500000E+01  0.51100000000E-03 0. -1.
         11   -1    0    0    0    0 -0.00000000000E+00 -0.00000000000E+00 -0.50000499739E+01  0.50000500000E+01  0.51100000000E-03 0.  1.
     100001    1    1    2    0    0 -0.12821815900E-02 -0.11391677716E-01 -0.19198650712E-01  0.50000500000E+01  0.50000000000E+01 0.  1.
     100001    1    1    2    0    0  0.12821815900E-02  0.11391677716E-01  0.19198650712E-01  0.50000500000E+01  0.50000000000E+01 0.  0.
</event>
<event>
 4    1  0.4919875E-001  0.5000050E+01  0.7818608E-02  0.2136455E+00
        -11   -1    0    0    0    0  0.00000000000E+00  0.00000000000E+00  0.50000499739E+01  0.50000500000E+01  0.51100000000E-03 0. -1.
         11   -1    0    0    0    0 -0.00000000000E+00 -0.00000000000E+00 -0.50000499739E+01  0.50000500000E+01  0.51100000000E-03 0.  1.
     100001    1    1    2    0    0 -0.17010013066E-01  0.80562262526E-02 -0.12073076412E-01  0.50000500000E+01  0.50000000000E+01 0.  0.
     100001    1    1    2    0    0  0.17010013066E-01 -0.80562262526E-02  0.12073076412E-01  0.50000500000E+01  0.50000000000E+01 0.  1.
</event>
<event>
 4    1  0.4919875E-001  0.5000050E+01  0.7818608E-02  0.2136455E+00
        -11   -1    0    0    0    0  0.00000000000E+00  0.00000000000E+00  0.50000499739E+01  0.50000500000E+01  0.51100000000E-03 0.  1.
         11   -1    0    0    0    0 -0.00000000000E+00 -0.00000000000E+00 -0.50000499739E+01  0.50000500000E+01  0.51100000000E-03 0. -1.
     100001    1    1    2    0    0 -0.11806982469E-01  0.16568436934E-01  0.92781766820E-02  0.50000500000E+01  0.50000000000E+01 0.  0.
     100001    1    1    2    0    0  0.11806982469E-01 -0.16568436934E-01 -0.92781766820E-02  0.50000500000E+01  0.50000000000E+01 0.  0.
</event>
<event>
 4    1  0.4919875E-001  0.5000050E+01  0.7818608E-02  0.2136455E+00
        -11   -1    0    0    0    0  0.00000000000E+00  0.00000000000E+00  0.50000499739E+01  0.50000500000E+01  0.51100000000E-03 0. -1.
         11   -1    0    0    0    0 -0.00000000000E+00 -0.00000000000E+00 -0.50000499739E+01  0.50000500000E+01  0.51100000000E-03 0.  1.
     100001    1    1    2    0    0  0.90317633755E-02 -0.20452260728E-01 -0.36712592881E-03  0.50000500000E+01  0.50000000000E+01 0. -1.
     100001    1    1    2    0    0 -0.90317633755E-02  0.20452260728E-01  0.36712592881E-03  0.50000500000E+01  0.50000000000E+01 0.  0.
</event>
<event>
 4    1  0.4919875E-001  0.5000050E+01  0.7818608E-02  0.2136455E+00
        -11   -1    0    0    0    0  0.00000000000E+00  0.00000000000E+00  0.50000499739E+01  0.50000500000E+01  0.51100000000E-03 0. -1.
         11   -1    0    0    0    0 -0.00000000000E+00 -0.00000000000E+00 -0.50000499739E+01  0.50000500000E+01  0.51100000000E-03 0.  1.
     100001    1    1    2    0    0  0.10867166120E-01  0.19104940986E-01  0.41119861909E-02  0.50000500000E+01  0.50000000000E+01 0.  0.
     100001    1    1    2    0    0 -0.10867166120E-01 -0.19104940986E-01 -0.41119861909E-02  0.50000500000E+01  0.50000000000E+01 0. -1.
</event>
<event>
 4    1  0.4919875E-001  0.5000050E+01  0.7818608E-02  0.2136455E+00
        -11   -1    0    0    0    0  0.00000000000E+00  0.00000000000E+00  0.50000499739E+01  0.50000500000E+01  0.51100000000E-03 0.  1.
         11   -1    0    0    0    0 -0.00000000000E+00 -0.00000000000E+00 -0.50000499739E+01  0.50000500000E+01  0.51100000000E-03 0. -1.
     100001    1    1    2    0    0  0.21422091192E-01 -0.14121562340E-02  0.62531850864E-02  0.50000500000E+01  0.50000000000E+01 0.  0.
     100001    1    1    2    0    0 -0.21422091192E-01  0.14121562340E-02 -0.62531850864E-02  0.50000500000E+01  0.50000000000E+01 0.  1.
</event>
<event>
 4    1  0.4919875E-001  0.5000050E+01  0.7818608E-02  0.2136455E+00
        -11   -1    0    0    0    0  0.00000000000E+00  0.00000000000E+00  0.50000499739E+01  0.50000500000E+01  0.51100000000E-03 0.  1.
         11   -1    0    0    0    0 -0.00000000000E+00 -0.00000000000E+00 -0.50000499739E+01  0.50000500000E+01  0.51100000000E-03 0. -1.
     100001    1    1    2    0    0 -0.84546032685E-02 -0.32980147399E-02 -0.20436371555E-01  0.50000500000E+01  0.50000000000E+01 0.  0.
     100001    1    1    2    0    0  0.84546032685E-02  0.32980147399E-02  0.20436371555E-01  0.50000500000E+01  0.50000000000E+01 0.  1.
</event>
<event>
 4    1  0.4919875E-001  0.5000050E+01  0.7818608E-02  0.2136455E+00
        -11   -1    0    0    0    0  0.00000000000E+00  0.00000000000E+00  0.50000499739E+01  0.50000500000E+01  0.51100000000E-03 0.  1.
         11   -1    0    0    0    0 -0.00000000000E+00 -0.00000000000E+00 -0.50000499739E+01  0.50000500000E+01  0.51100000000E-03 0. -1.
     100001    1    1    2    0    0 -0.13042849164E-01 -0.62679035155E-02  0.17046993025E-01  0.50000500000E+01  0.50000000000E+01 0.  0.
     100001    1    1    2    0    0  0.13042849164E-01  0.62679035155E-02 -0.17046993025E-01  0.50000500000E+01  0.50000000000E+01 0.  0.
</event>
<event>
 4    1  0.4919875E-001  0.5000050E+01  0.7818608E-02  0.2136455E+00
        -11   -1    0    0    0    0  0.00000000000E+00  0.00000000000E+00  0.50000499739E+01  0.50000500000E+01  0.51100000000E-03 0. -1.
         11   -1    0    0    0    0 -0.00000000000E+00 -0.00000000000E+00 -0.50000499739E+01  0.50000500000E+01  0.51100000000E-03 0.  1.
     100001    1    1    2    0    0  0.21148381044E-01 -0.71875079007E-02 -0.10431727555E-02  0.50000500000E+01  0.50000000000E+01 0. -1.
     100001    1    1    2    0    0 -0.21148381044E-01  0.71875079007E-02  0.10431727555E-02  0.50000500000E+01  0.50000000000E+01 0.  1.
</event>
<event>
 4    1  0.4919875E-001  0.5000050E+01  0.7818608E-02  0.2136455E+00
        -11   -1    0    0    0    0  0.00000000000E+00  0.00000000000E+00  0.50000499739E+01  0.50000500000E+01  0.51100000000E-03 0. -1.
         11   -1    0    0    0    0 -0.00000000000E+00 -0.00000000000E+00 -0.50000499739E+01  0.50000500000E+01  0.51100000000E-03 0.  1.
     100001    1    1    2    0    0 -0.59305997839E-02  0.15512293116E-02 -0.21504050173E-01  0.50000500000E+01  0.50000000000E+01 0.  1.
     100001    1    1    2    0    0  0.59305997839E-02 -0.15512293116E-02  0.21504050173E-01  0.50000500000E+01  0.50000000000E+01 0.  0.
</event>
<event>
 4    1  0.4919875E-001  0.5000050E+01  0.7818608E-02  0.2136455E+00
        -11   -1    0    0    0    0  0.00000000000E+00  0.00000000000E+00  0.50000499739E+01  0.50000500000E+01  0.51100000000E-03 0. -1.
         11   -1    0    0    0    0 -0.00000000000E+00 -0.00000000000E+00 -0.50000499739E+01  0.50000500000E+01  0.51100000000E-03 0.  1.
     100001    1    1    2    0    0 -0.12839695933E-01  0.69263699740E-02 -0.16946094161E-01  0.50000500000E+01  0.50000000000E+01 0.  1.
     100001    1    1    2    0    0  0.12839695933E-01 -0.69263699740E-02  0.16946094161E-01  0.50000500000E+01  0.50000000000E+01 0. -1.
</event>
<event>
 4    1  0.4919875E-001  0.5000050E+01  0.7818608E-02  0.2136455E+00
        -11   -1    0    0    0    0  0.00000000000E+00  0.00000000000E+00  0.50000499739E+01  0.50000500000E+01  0.51100000000E-03 0. -1.
         11   -1    0    0    0    0 -0.00000000000E+00 -0.00000000000E+00 -0.50000499739E+01  0.50000500000E+01  0.51100000000E-03 0.  1.
     100001    1    1    2    0    0 -0.17213609780E-01  0.79084777709E-02  0.11880661500E-01  0.50000500000E+01  0.50000000000E+01 0. -1.
     100001    1    1    2    0    0  0.17213609780E-01 -0.79084777709E-02 -0.11880661500E-01  0.50000500000E+01  0.50000000000E+01 0.  1.
</event>
<event>
 4    1  0.4919875E-001  0.5000050E+01  0.7818608E-02  0.2136455E+00
        -11   -1    0    0    0    0  0.00000000000E+00  0.00000000000E+00  0.50000499739E+01  0.50000500000E+01  0.51100000000E-03 0. -1.
         11   -1    0    0    0    0 -0.00000000000E+00 -0.00000000000E+00 -0.50000499739E+01  0.50000500000E+01  0.51100000000E-03 0.  1.
     100001    1    1    2    0    0  0.18493496013E-01 -0.12299010909E-01  0.25937301130E-02  0.50000500000E+01  0.50000000000E+01 0.  0.
     100001    1    1    2    0    0 -0.18493496013E-01  0.12299010909E-01 -0.25937301130E-02  0.50000500000E+01  0.50000000000E+01 0.  1.
</event>
<event>
 4    1  0.4919875E-001  0.5000050E+01  0.7818608E-02  0.2136455E+00
        -11   -1    0    0    0    0  0.00000000000E+00  0.00000000000E+00  0.50000499739E+01  0.50000500000E+01  0.51100000000E-03 0.  1.
         11   -1    0    0    0    0 -0.00000000000E+00 -0.00000000000E+00 -0.50000499739E+01  0.50000500000E+01  0.51100000000E-03 0. -1.
     100001    1    1    2    0    0 -0.11380750018E-01  0.19138287437E-01  0.20510931239E-02  0.50000500000E+01  0.50000000000E+01 0.  1.
     100001    1    1    2    0    0  0.11380750018E-01 -0.19138287437E-01 -0.20510931239E-02  0.50000500000E+01  0.50000000000E+01 0. -1.
</event>
<event>
 4    1  0.4919875E-001  0.5000050E+01  0.7818608E-02  0.2136455E+00
        -11   -1    0    0    0    0  0.00000000000E+00  0.00000000000E+00  0.50000499739E+01  0.50000500000E+01  0.51100000000E-03 0.  1.
         11   -1    0    0    0    0 -0.00000000000E+00 -0.00000000000E+00 -0.50000499739E+01  0.50000500000E+01  0.51100000000E-03 0. -1.
     100001    1    1    2    0    0 -0.21546952382E-01  0.29310442092E-02 -0.52096375019E-02  0.50000500000E+01  0.50000000000E+01 0.  0.
     100001    1    1    2    0    0  0.21546952382E-01 -0.29310442092E-02  0.52096375019E-02  0.50000500000E+01  0.50000000000E+01 0.  0.
</event>
<event>
 4    1  0.4919875E-001  0.5000050E+01  0.7818608E-02  0.2136455E+00
        -11   -1    0    0    0    0  0.00000000000E+00  0.00000000000E+00  0.50000499739E+01  0.50000500000E+01  0.51100000000E-03 0.  1.
         11   -1    0    0    0    0 -0.00000000000E+00 -0.00000000000E+00 -0.50000499739E+01  0.50000500000E+01  0.51100000000E-03 0. -1.
     100001    1    1    2    0    0 -0.16680775131E-01  0.10713806124E-01 -0.10342562514E-01  0.50000500000E+01  0.50000000000E+01 0.  1.
     100001    1    1    2    0    0  0.16680775131E-01 -0.10713806124E-01  0.10342562514E-01  0.50000500000E+01  0.50000000000E+01 0. -1.
</event>
<event>
 4    1  0.4919875E-001  0.5000050E+01  0.7818608E-02  0.2136455E+00
        -11   -1    0    0    0    0  0.00000000000E+00  0.00000000000E+00  0.50000499739E+01  0.50000500000E+01  0.51100000000E-03 0. -1.
         11   -1    0    0    0    0 -0.00000000000E+00 -0.00000000000E+00 -0.50000499739E+01  0.50000500000E+01  0.51100000000E-03 0.  1.
     100001    1    1    2    0    0 -0.85849482837E-02 -0.20632295584E-01 -0.78073164539E-03  0.50000500000E+01  0.50000000000E+01 0.  0.
     100001    1    1    2    0    0  0.85849482837E-02  0.20632295584E-01  0.78073164539E-03  0.50000500000E+01  0.50000000000E+01 0. -1.
</event>
<event>
 4    1  0.4919875E-001  0.5000050E+01  0.7818608E-02  0.2136455E+00
        -11   -1    0    0    0    0  0.00000000000E+00  0.00000000000E+00  0.50000499739E+01  0.50000500000E+01  0.51100000000E-03 0.  1.
         11   -1    0    0    0    0 -0.00000000000E+00 -0.00000000000E+00 -0.50000499739E+01  0.50000500000E+01  0.51100000000E-03 0. -1.
     100001    1    1    2    0    0 -0.16983856552E-01 -0.13798691509E-01  0.45986116670E-02  0.50000500000E+01  0.50000000000E+01 0. -1.
     100001    1    1    2    0    0  0.16983856552E-01  0.13798691509E-01 -0.45986116670E-02  0.50000500000E+01  0.50000000000E+01 0.  1.
</event>
<event>
 4    1  0.4919875E-001  0.5000050E+01  0.7818608E-02  0.2136455E+00
        -11   -1    0    0    0    0  0.00000000000E+00  0.00000000000E+00  0.50000499739E+01  0.50000500000E+01  0.51100000000E-03 0.  1.
         11   -1    0    0    0    0 -0.00000000000E+00 -0.00000000000E+00 -0.50000499739E+01  0.50000500000E+01  0.51100000000E-03 0. -1.
     100001    1    1    2    0    0 -0.19558547394E-01  0.96445054069E-02 -0.49446172027E-02  0.50000500000E+01  0.50000000000E+01 0.  0.
     100001    1    1    2    0    0  0.19558547394E-01 -0.96445054069E-02  0.49446172027E-02  0.50000500000E+01  0.50000000000E+01 0.  1.
</event>
<event>
 4    1  0.4919875E-001  0.5000050E+01  0.7818608E-02  0.2136455E+00
        -11   -1    0    0    0    0  0.00000000000E+00  0.00000000000E+00  0.50000499739E+01  0.50000500000E+01  0.51100000000E-03 0.  1.
         11   -1    0    0    0    0 -0.00000000000E+00 -0.00000000000E+00 -0.50000499739E+01  0.50000500000E+01  0.51100000000E-03 0. -1.
     100001    1    1    2    0    0  0.15080468506E-01  0.14935133714E-01 -0.70373113173E-02  0.50000500000E+01  0.50000000000E+01 0.  1.
     100001    1    1    2    0    0 -0.15080468506E-01 -0.14935133714E-01  0.70373113173E-02  0.50000500000E+01  0.50000000000E+01 0.  1.
</event>
<event>
 4    1  0.4919875E-001  0.5000050E+01  0.7818608E-02  0.2136455E+00
        -11   -1    0    0    0    0  0.00000000000E+00  0.00000000000E+00  0.50000499739E+01  0.50000500000E+01  0.51100000000E-03 0.  1.
         11   -1    0    0    0    0 -0.00000000000E+00 -0.00000000000E+00 -0.50000499739E+01  0.50000500000E+01  0.51100000000E-03 0. -1.
     100001    1    1    2    0    0  0.90826919331E-02  0.11716998865E-01 -0.16739747454E-01  0.50000500000E+01  0.50000000000E+01 0.  0.
     100001    1    1    2    0    0 -0.90826919331E-02 -0.11716998865E-01  0.16739747454E-01  0.50000500000E+01  0.50000000000E+01 0. -1.
</event>
<event>
 4    1  0.4919875E-001  0.5000050E+01  0.7818608E-02  0.2136455E+00
        -11   -1    0    0    0    0  0.00000000000E+00  0.00000000000E+00  0.50000499739E+01  0.50000500000E+01  0.51100000000E-03 0.  1.
         11   -1    0    0    0    0 -0.00000000000E+00 -0.00000000000E+00 -0.50000499739E+01  0.50000500000E+01  0.51100000000E-03 0. -1.
     100001    1    1    2    0    0 -0.12837039251E-01 -0.10952176216E-01 -0.14671835584E-01  0.50000500000E+01  0.50000000000E+01 0. -1.
     100001    1    1    2    0    0  0.12837039251E-01  0.10952176216E-01  0.14671835584E-01  0.50000500000E+01  0.50000000000E+01 0. -1.
</event>
<event>
 4    1  0.4919875E-001  0.5000050E+01  0.7818608E-02  0.2136455E+00
        -11   -1    0    0    0    0  0.00000000000E+00  0.00000000000E+00  0.50000499739E+01  0.50000500000E+01  0.51100000000E-03 0.  1.
         11   -1    0    0    0    0 -0.00000000000E+00 -0.00000000000E+00 -0.50000499739E+01  0.50000500000E+01  0.51100000000E-03 0. -1.
     100001    1    1    2    0    0  0.10968244671E-01  0.14874480576E-01  0.12587689876E-01  0.50000500000E+01  0.50000000000E+01 0.  0.
     100001    1    1    2    0    0 -0.10968244671E-01 -0.14874480576E-01 -0.12587689876E-01  0.50000500000E+01  0.50000000000E+01 0.  0.
</event>
<event>
 4    1  0.4919875E-001  0.5000050E+01  0.7818608E-02  0.2136455E+00
        -11   -1    0    0    0    0  0.00000000000E+00  0.00000000000E+00  0.50000499739E+01  0.50000500000E+01  0.51100000000E-03 0.  1.
         11   -1    0    0    0    0 -0.00000000000E+00 -0.00000000000E+00 -0.50000499739E+01  0.50000500000E+01  0.51100000000E-03 0. -1.
     100001    1    1    2    0    0 -0.19141612052E-01 -0.37942566122E-03 -0.11552368771E-01  0.50000500000E+01  0.50000000000E+01 0. -1.
     100001    1    1    2    0    0  0.19141612052E-01  0.37942566122E-03  0.11552368771E-01  0.50000500000E+01  0.50000000000E+01 0.  1.
</event>
<event>
 4    1  0.4919875E-001  0.5000050E+01  0.7818608E-02  0.2136455E+00
        -11   -1    0    0    0    0  0.00000000000E+00  0.00000000000E+00  0.50000499739E+01  0.50000500000E+01  0.51100000000E-03 0.  1.
         11   -1    0    0    0    0 -0.00000000000E+00 -0.00000000000E+00 -0.50000499739E+01  0.50000500000E+01  0.51100000000E-03 0. -1.
     100001    1    1    2    0    0  0.46216702790E-02 -0.21856671601E-01  0.96362355678E-03  0.50000500000E+01  0.50000000000E+01 0.  1.
     100001    1    1    2    0    0 -0.46216702790E-02  0.21856671601E-01 -0.96362355678E-03  0.50000500000E+01  0.50000000000E+01 0.  0.
</event>
<event>
 4    1  0.4919875E-001  0.5000050E+01  0.7818608E-02  0.2136455E+00
        -11   -1    0    0    0    0  0.00000000000E+00  0.00000000000E+00  0.50000499739E+01  0.50000500000E+01  0.51100000000E-03 0. -1.
         11   -1    0    0    0    0 -0.00000000000E+00 -0.00000000000E+00 -0.50000499739E+01  0.50000500000E+01  0.51100000000E-03 0.  1.
     100001    1    1    2    0    0  0.18191123254E-01 -0.91476053540E-02  0.92415827131E-02  0.50000500000E+01  0.50000000000E+01 0.  0.
     100001    1    1    2    0    0 -0.18191123254E-01  0.91476053540E-02 -0.92415827131E-02  0.50000500000E+01  0.50000000000E+01 0.  0.
</event>
<event>
 4    1  0.4919875E-001  0.5000050E+01  0.7818608E-02  0.2136455E+00
        -11   -1    0    0    0    0  0.00000000000E+00  0.00000000000E+00  0.50000499739E+01  0.50000500000E+01  0.51100000000E-03 0. -1.
         11   -1    0    0    0    0 -0.00000000000E+00 -0.00000000000E+00 -0.50000499739E+01  0.50000500000E+01  0.51100000000E-03 0.  1.
     100001    1    1    2    0    0 -0.55928939903E-02  0.14408459515E-01 -0.16159156265E-01  0.50000500000E+01  0.50000000000E+01 0.  1.
     100001    1    1    2    0    0  0.55928939903E-02 -0.14408459515E-01  0.16159156265E-01  0.50000500000E+01  0.50000000000E+01 0.  0.
</event>
<event>
 4    1  0.4919875E-001  0.5000050E+01  0.7818608E-02  0.2136455E+00
        -11   -1    0    0    0    0  0.00000000000E+00  0.00000000000E+00  0.50000499739E+01  0.50000500000E+01  0.51100000000E-03 0.  1.
         11   -1    0    0    0    0 -0.00000000000E+00 -0.00000000000E+00 -0.50000499739E+01  0.50000500000E+01  0.51100000000E-03 0. -1.
     100001    1    1    2    0    0  0.72225036830E-02  0.19987639530E-01 -0.69521368339E-02  0.50000500000E+01  0.50000000000E+01 0. -1.
     100001    1    1    2    0    0 -0.72225036830E-02 -0.19987639530E-01  0.69521368339E-02  0.50000500000E+01  0.50000000000E+01 0.  1.
</event>
<event>
 4    1  0.4919875E-001  0.5000050E+01  0.7818608E-02  0.2136455E+00
        -11   -1    0    0    0    0  0.00000000000E+00  0.00000000000E+00  0.50000499739E+01  0.50000500000E+01  0.51100000000E-03 0.  1.
         11   -1    0    0    0    0 -0.00000000000E+00 -0.00000000000E+00 -0.50000499739E+01  0.50000500000E+01  0.51100000000E-03 0. -1.
     100001    1    1    2    0    0 -0.13888952462E-01 -0.81023289238E-02 -0.15538718271E-01  0.50000500000E+01  0.50000000000E+01 0.  1.
     100001    1    1    2    0    0  0.13888952462E-01  0.81023289238E-02  0.15538718271E-01  0.50000500000E+01  0.50000000000E+01 0. -1.
</event>
<event>
 4    1  0.4919875E-001  0.5000050E+01  0.7818608E-02  0.2136455E+00
        -11   -1    0    0    0    0  0.00000000000E+00  0.00000000000E+00  0.50000499739E+01  0.50000500000E+01  0.51100000000E-03 0.  1.
         11   -1    0    0    0    0 -0.00000000000E+00 -0.00000000000E+00 -0.50000499739E+01  0.50000500000E+01  0.51100000000E-03 0. -1.
     100001    1    1    2    0    0  0.12428894700E-01 -0.16240824329E-01  0.90421624424E-02  0.50000500000E+01  0.50000000000E+01 0.  1.
     100001    1    1    2    0    0 -0.12428894700E-01  0.16240824329E-01 -0.90421624424E-02  0.50000500000E+01  0.50000000000E+01 0. -1.
</event>
<event>
 4    1  0.4919875E-001  0.5000050E+01  0.7818608E-02  0.2136455E+00
        -11   -1    0    0    0    0  0.00000000000E+00  0.00000000000E+00  0.50000499739E+01  0.50000500000E+01  0.51100000000E-03 0. -1.
         11   -1    0    0    0    0 -0.00000000000E+00 -0.00000000000E+00 -0.50000499739E+01  0.50000500000E+01  0.51100000000E-03 0.  1.
     100001    1    1    2    0    0 -0.10890873842E-01 -0.19085593130E-01 -0.41390218457E-02  0.50000500000E+01  0.50000000000E+01 0.  0.
     100001    1    1    2    0    0  0.10890873842E-01  0.19085593130E-01  0.41390218457E-02  0.50000500000E+01  0.50000000000E+01 0.  1.
</event>
<event>
 4    1  0.4919875E-001  0.5000050E+01  0.7818608E-02  0.2136455E+00
        -11   -1    0    0    0    0  0.00000000000E+00  0.00000000000E+00  0.50000499739E+01  0.50000500000E+01  0.51100000000E-03 0.  1.
         11   -1    0    0    0    0 -0.00000000000E+00 -0.00000000000E+00 -0.50000499739E+01  0.50000500000E+01  0.51100000000E-03 0. -1.
     100001    1    1    2    0    0 -0.95365550954E-02  0.14947662798E-01 -0.13624389667E-01  0.50000500000E+01  0.50000000000E+01 0.  0.
     100001    1    1    2    0    0  0.95365550954E-02 -0.14947662798E-01  0.13624389667E-01  0.50000500000E+01  0.50000000000E+01 0.  0.
</event>
<event>
 4    1  0.4919875E-001  0.5000050E+01  0.7818608E-02  0.2136455E+00
        -11   -1    0    0    0    0  0.00000000000E+00  0.00000000000E+00  0.50000499739E+01  0.50000500000E+01  0.51100000000E-03 0. -1.
         11   -1    0    0    0    0 -0.00000000000E+00 -0.00000000000E+00 -0.50000499739E+01  0.50000500000E+01  0.51100000000E-03 0.  1.
     100001    1    1    2    0    0  0.22043124745E-01  0.31111327307E-02 -0.21033317839E-02  0.50000500000E+01  0.50000000000E+01 0.  0.
     100001    1    1    2    0    0 -0.22043124745E-01 -0.31111327307E-02  0.21033317839E-02  0.50000500000E+01  0.50000000000E+01 0.  1.
</event>
<event>
 4    1  0.4919875E-001  0.5000050E+01  0.7818608E-02  0.2136455E+00
        -11   -1    0    0    0    0  0.00000000000E+00  0.00000000000E+00  0.50000499739E+01  0.50000500000E+01  0.51100000000E-03 0. -1.
         11   -1    0    0    0    0 -0.00000000000E+00 -0.00000000000E+00 -0.50000499739E+01  0.50000500000E+01  0.51100000000E-03 0.  1.
     100001    1    1    2    0    0 -0.10465903317E-01 -0.16408717432E-01  0.11010057221E-01  0.50000500000E+01  0.50000000000E+01 0.  0.
     100001    1    1    2    0    0  0.10465903317E-01  0.16408717432E-01 -0.11010057221E-01  0.50000500000E+01  0.50000000000E+01 0.  0.
</event>
<event>
 4    1  0.4919875E-001  0.5000050E+01  0.7818608E-02  0.2136455E+00
        -11   -1    0    0    0    0  0.00000000000E+00  0.00000000000E+00  0.50000499739E+01  0.50000500000E+01  0.51100000000E-03 0.  1.
         11   -1    0    0    0    0 -0.00000000000E+00 -0.00000000000E+00 -0.50000499739E+01  0.50000500000E+01  0.51100000000E-03 0. -1.
     100001    1    1    2    0    0 -0.20541278919E-01 -0.73941812838E-02 -0.48357464287E-02  0.50000500000E+01  0.50000000000E+01 0. -1.
     100001    1    1    2    0    0  0.20541278919E-01  0.73941812838E-02  0.48357464287E-02  0.50000500000E+01  0.50000000000E+01 0.  1.
</event>
<event>
 4    1  0.4919875E-001  0.5000050E+01  0.7818608E-02  0.2136455E+00
        -11   -1    0    0    0    0  0.00000000000E+00  0.00000000000E+00  0.50000499739E+01  0.50000500000E+01  0.51100000000E-03 0. -1.
         11   -1    0    0    0    0 -0.00000000000E+00 -0.00000000000E+00 -0.50000499739E+01  0.50000500000E+01  0.51100000000E-03 0.  1.
     100001    1    1    2    0    0  0.18165480415E-01  0.48363307764E-02 -0.12108993596E-01  0.50000500000E+01  0.50000000000E+01 0.  0.
     100001    1    1    2    0    0 -0.18165480415E-01 -0.48363307764E-02  0.12108993596E-01  0.50000500000E+01  0.50000000000E+01 0.  1.
</event>
<event>
 4    1  0.4919875E-001  0.5000050E+01  0.7818608E-02  0.2136455E+00
        -11   -1    0    0    0    0  0.00000000000E+00  0.00000000000E+00  0.50000499739E+01  0.50000500000E+01  0.51100000000E-03 0. -1.
         11   -1    0    0    0    0 -0.00000000000E+00 -0.00000000000E+00 -0.50000499739E+01  0.50000500000E+01  0.51100000000E-03 0.  1.
     100001    1    1    2    0    0  0.15603809093E-02  0.15554405336E-01  0.15988376593E-01  0.50000500000E+01  0.50000000000E+01 0.  0.
     100001    1    1    2    0    0 -0.15603809093E-02 -0.15554405336E-01 -0.15988376593E-01  0.50000500000E+01  0.50000000000E+01 0. -1.
</event>
<event>
 4    1  0.4919875E-001  0.5000050E+01  0.7818608E-02  0.2136455E+00
        -11   -1    0    0    0    0  0.00000000000E+00  0.00000000000E+00  0.50000499739E+01  0.50000500000E+01  0.51100000000E-03 0.  1.
         11   -1    0    0    0    0 -0.00000000000E+00 -0.00000000000E+00 -0.50000499739E+01  0.50000500000E+01  0.51100000000E-03 0. -1.
     100001    1    1    2    0    0 -0.22090034973E-01 -0.17930204616E-02 -0.29695003801E-02  0.50000500000E+01  0.50000000000E+01 0.  1.
     100001    1    1    2    0    0  0.22090034973E-01  0.17930204616E-02  0.29695003801E-02  0.50000500000E+01  0.50000000000E+01 0.  0.
</event>
<event>
 4    1  0.4919875E-001  0.5000050E+01  0.7818608E-02  0.2136455E+00
        -11   -1    0    0    0    0  0.00000000000E+00  0.00000000000E+00  0.50000499739E+01  0.50000500000E+01  0.51100000000E-03 0. -1.
         11   -1    0    0    0    0 -0.00000000000E+00 -0.00000000000E+00 -0.50000499739E+01  0.50000500000E+01  0.51100000000E-03 0.  1.
     100001    1    1    2    0    0  0.15222031143E-01  0.15719090267E-01  0.46046138862E-02  0.50000500000E+01  0.50000000000E+01 0.  1.
     100001    1    1    2    0    0 -0.15222031143E-01 -0.15719090267E-01 -0.46046138862E-02  0.50000500000E+01  0.50000000000E+01 0.  0.
</event>
<event>
 4    1  0.4919875E-001  0.5000050E+01  0.7818608E-02  0.2136455E+00
        -11   -1    0    0    0    0  0.00000000000E+00  0.00000000000E+00  0.50000499739E+01  0.50000500000E+01  0.51100000000E-03 0. -1.
         11   -1    0    0    0    0 -0.00000000000E+00 -0.00000000000E+00 -0.50000499739E+01  0.50000500000E+01  0.51100000000E-03 0.  1.
     100001    1    1    2    0    0 -0.21677492903E-01  0.22952521810E-03 -0.54805218393E-02  0.50000500000E+01  0.50000000000E+01 0.  0.
     100001    1    1    2    0    0  0.21677492903E-01 -0.22952521810E-03  0.54805218393E-02  0.50000500000E+01  0.50000000000E+01 0.  1.
</event>
<event>
 4    1  0.4919875E-001  0.5000050E+01  0.7818608E-02  0.2136455E+00
        -11   -1    0    0    0    0  0.00000000000E+00  0.00000000000E+00  0.50000499739E+01  0.50000500000E+01  0.51100000000E-03 0.  1.
         11   -1    0    0    0    0 -0.00000000000E+00 -0.00000000000E+00 -0.50000499739E+01  0.50000500000E+01  0.51100000000E-03 0. -1.
     100001    1    1    2    0    0  0.36375230877E-02 -0.44351526498E-02  0.21612504407E-01  0.50000500000E+01  0.50000000000E+01 0.  1.
     100001    1    1    2    0    0 -0.36375230877E-02  0.44351526498E-02 -0.21612504407E-01  0.50000500000E+01  0.50000000000E+01 0.  0.
</event>
<event>
 4    1  0.4919875E-001  0.5000050E+01  0.7818608E-02  0.2136455E+00
        -11   -1    0    0    0    0  0.00000000000E+00  0.00000000000E+00  0.50000499739E+01  0.50000500000E+01  0.51100000000E-03 0. -1.
         11   -1    0    0    0    0 -0.00000000000E+00 -0.00000000000E+00 -0.50000499739E+01  0.50000500000E+01  0.51100000000E-03 0.  1.
     100001    1    1    2    0    0 -0.91499974884E-02 -0.16018504778E-01 -0.12636753959E-01  0.50000500000E+01  0.50000000000E+01 0. -1.
     100001    1    1    2    0    0  0.91499974884E-02  0.16018504778E-01  0.12636753959E-01  0.50000500000E+01  0.50000000000E+01 0.  0.
</event>
<event>
 4    1  0.4919875E-001  0.5000050E+01  0.7818608E-02  0.2136455E+00
        -11   -1    0    0    0    0  0.00000000000E+00  0.00000000000E+00  0.50000499739E+01  0.50000500000E+01  0.51100000000E-03 0. -1.
         11   -1    0    0    0    0 -0.00000000000E+00 -0.00000000000E+00 -0.50000499739E+01  0.50000500000E+01  0.51100000000E-03 0.  1.
     100001    1    1    2    0    0  0.55870606986E-02  0.20931624937E-01 -0.55366352807E-02  0.50000500000E+01  0.50000000000E+01 0.  0.
     100001    1    1    2    0    0 -0.55870606986E-02 -0.20931624937E-01  0.55366352807E-02  0.50000500000E+01  0.50000000000E+01 0.  1.
</event>
<event>
 4    1  0.4919875E-001  0.5000050E+01  0.7818608E-02  0.2136455E+00
        -11   -1    0    0    0    0  0.00000000000E+00  0.00000000000E+00  0.50000499739E+01  0.50000500000E+01  0.51100000000E-03 0. -1.
         11   -1    0    0    0    0 -0.00000000000E+00 -0.00000000000E+00 -0.50000499739E+01  0.50000500000E+01  0.51100000000E-03 0.  1.
     100001    1    1    2    0    0 -0.14524023397E-01  0.16551005075E-01  0.38883769571E-02  0.50000500000E+01  0.50000000000E+01 0. -1.
     100001    1    1    2    0    0  0.14524023397E-01 -0.16551005075E-01 -0.38883769571E-02  0.50000500000E+01  0.50000000000E+01 0.  1.
</event>
<event>
 4    1  0.4919875E-001  0.5000050E+01  0.7818608E-02  0.2136455E+00
        -11   -1    0    0    0    0  0.00000000000E+00  0.00000000000E+00  0.50000499739E+01  0.50000500000E+01  0.51100000000E-03 0. -1.
         11   -1    0    0    0    0 -0.00000000000E+00 -0.00000000000E+00 -0.50000499739E+01  0.50000500000E+01  0.51100000000E-03 0.  1.
     100001    1    1    2    0    0  0.16953733399E-01  0.11919404604E-01 -0.83965003251E-02  0.50000500000E+01  0.50000000000E+01 0.  1.
     100001    1    1    2    0    0 -0.16953733399E-01 -0.11919404604E-01  0.83965003251E-02  0.50000500000E+01  0.50000000000E+01 0. -1.
</event>
<event>
 4    1  0.4919875E-001  0.5000050E+01  0.7818608E-02  0.2136455E+00
        -11   -1    0    0    0    0  0.00000000000E+00  0.00000000000E+00  0.50000499739E+01  0.50000500000E+01  0.51100000000E-03 0.  1.
         11   -1    0    0    0    0 -0.00000000000E+00 -0.00000000000E+00 -0.50000499739E+01  0.50000500000E+01  0.51100000000E-03 0. -1.
     100001    1    1    2    0    0  0.18168683496E-01  0.70872462870E-02  0.10939487194E-01  0.50000500000E+01  0.50000000000E+01 0. -1.
     100001    1    1    2    0    0 -0.18168683496E-01 -0.70872462870E-02 -0.10939487194E-01  0.50000500000E+01  0.50000000000E+01 0.  0.
</event>
<event>
 4    1  0.4919875E-001  0.5000050E+01  0.7818608E-02  0.2136455E+00
        -11   -1    0    0    0    0  0.00000000000E+00  0.00000000000E+00  0.50000499739E+01  0.50000500000E+01  0.51100000000E-03 0. -1.
         11   -1    0    0    0    0 -0.00000000000E+00 -0.00000000000E+00 -0.50000499739E+01  0.50000500000E+01  0.51100000000E-03 0.  1.
     100001    1    1    2    0    0 -0.11199473828E-01 -0.16422549171E-01 -0.10240808791E-01  0.50000500000E+01  0.50000000000E+01 0.  1.
     100001    1    1    2    0    0  0.11199473828E-01  0.16422549171E-01  0.10240808791E-01  0.50000500000E+01  0.50000000000E+01 0. -1.
</event>
<event>
 4    1  0.4919875E-001  0.5000050E+01  0.7818608E-02  0.2136455E+00
        -11   -1    0    0    0    0  0.00000000000E+00  0.00000000000E+00  0.50000499739E+01  0.50000500000E+01  0.51100000000E-03 0.  1.
         11   -1    0    0    0    0 -0.00000000000E+00 -0.00000000000E+00 -0.50000499739E+01  0.50000500000E+01  0.51100000000E-03 0. -1.
     100001    1    1    2    0    0 -0.21259679573E-01 -0.60368156943E-02  0.34037304110E-02  0.50000500000E+01  0.50000000000E+01 0. -1.
     100001    1    1    2    0    0  0.21259679573E-01  0.60368156943E-02 -0.34037304110E-02  0.50000500000E+01  0.50000000000E+01 0.  1.
</event>
<event>
 4    1  0.4919875E-001  0.5000050E+01  0.7818608E-02  0.2136455E+00
        -11   -1    0    0    0    0  0.00000000000E+00  0.00000000000E+00  0.50000499739E+01  0.50000500000E+01  0.51100000000E-03 0.  1.
         11   -1    0    0    0    0 -0.00000000000E+00 -0.00000000000E+00 -0.50000499739E+01  0.50000500000E+01  0.51100000000E-03 0. -1.
     100001    1    1    2    0    0  0.17048942869E-01 -0.14468120219E-01  0.97695363598E-04  0.50000500000E+01  0.50000000000E+01 0.  1.
     100001    1    1    2    0    0 -0.17048942869E-01  0.14468120219E-01 -0.97695363598E-04  0.50000500000E+01  0.50000000000E+01 0. -1.
</event>
<event>
 4    1  0.4919875E-001  0.5000050E+01  0.7818608E-02  0.2136455E+00
        -11   -1    0    0    0    0  0.00000000000E+00  0.00000000000E+00  0.50000499739E+01  0.50000500000E+01  0.51100000000E-03 0.  1.
         11   -1    0    0    0    0 -0.00000000000E+00 -0.00000000000E+00 -0.50000499739E+01  0.50000500000E+01  0.51100000000E-03 0. -1.
     100001    1    1    2    0    0 -0.14316162223E-01  0.13881534501E-01 -0.10116965904E-01  0.50000500000E+01  0.50000000000E+01 0.  0.
     100001    1    1    2    0    0  0.14316162223E-01 -0.13881534501E-01  0.10116965904E-01  0.50000500000E+01  0.50000000000E+01 0. -1.
</event>
<event>
 4    1  0.4919875E-001  0.5000050E+01  0.7818608E-02  0.2136455E+00
        -11   -1    0    0    0    0  0.00000000000E+00  0.00000000000E+00  0.50000499739E+01  0.50000500000E+01  0.51100000000E-03 0. -1.
         11   -1    0    0    0    0 -0.00000000000E+00 -0.00000000000E+00 -0.50000499739E+01  0.50000500000E+01  0.51100000000E-03 0.  1.
     100001    1    1    2    0    0  0.85714829878E-02  0.16715398647E-01 -0.12129617779E-01  0.50000500000E+01  0.50000000000E+01 0.  1.
     100001    1    1    2    0    0 -0.85714829878E-02 -0.16715398647E-01  0.12129617779E-01  0.50000500000E+01  0.50000000000E+01 0. -1.
</event>
<event>
 4    1  0.4919875E-001  0.5000050E+01  0.7818608E-02  0.2136455E+00
        -11   -1    0    0    0    0  0.00000000000E+00  0.00000000000E+00  0.50000499739E+01  0.50000500000E+01  0.51100000000E-03 0.  1.
         11   -1    0    0    0    0 -0.00000000000E+00 -0.00000000000E+00 -0.50000499739E+01  0.50000500000E+01  0.51100000000E-03 0. -1.
     100001    1    1    2    0    0  0.15344770635E-01  0.44449095121E-02  0.15645551878E-01  0.50000500000E+01  0.50000000000E+01 0.  0.
     100001    1    1    2    0    0 -0.15344770635E-01 -0.44449095121E-02 -0.15645551878E-01  0.50000500000E+01  0.50000000000E+01 0.  0.
</event>
<event>
 4    1  0.4919875E-001  0.5000050E+01  0.7818608E-02  0.2136455E+00
        -11   -1    0    0    0    0  0.00000000000E+00  0.00000000000E+00  0.50000499739E+01  0.50000500000E+01  0.51100000000E-03 0. -1.
         11   -1    0    0    0    0 -0.00000000000E+00 -0.00000000000E+00 -0.50000499739E+01  0.50000500000E+01  0.51100000000E-03 0.  1.
     100001    1    1    2    0    0  0.13440278496E-01 -0.34073606482E-02 -0.17542842055E-01  0.50000500000E+01  0.50000000000E+01 0.  1.
     100001    1    1    2    0    0 -0.13440278496E-01  0.34073606482E-02  0.17542842055E-01  0.50000500000E+01  0.50000000000E+01 0.  0.
</event>
<event>
 4    1  0.4919875E-001  0.5000050E+01  0.7818608E-02  0.2136455E+00
        -11   -1    0    0    0    0  0.00000000000E+00  0.00000000000E+00  0.50000499739E+01  0.50000500000E+01  0.51100000000E-03 0.  1.
         11   -1    0    0    0    0 -0.00000000000E+00 -0.00000000000E+00 -0.50000499739E+01  0.50000500000E+01  0.51100000000E-03 0. -1.
     100001    1    1    2    0    0  0.37508447984E-02  0.52255679240E-02 -0.21415580851E-01  0.50000500000E+01  0.50000000000E+01 0. -1.
     100001    1    1    2    0    0 -0.37508447984E-02 -0.52255679240E-02  0.21415580851E-01  0.50000500000E+01  0.50000000000E+01 0.  1.
</event>
<event>
 4    1  0.4919875E-001  0.5000050E+01  0.7818608E-02  0.2136455E+00
        -11   -1    0    0    0    0  0.00000000000E+00  0.00000000000E+00  0.50000499739E+01  0.50000500000E+01  0.51100000000E-03 0. -1.
         11   -1    0    0    0    0 -0.00000000000E+00 -0.00000000000E+00 -0.50000499739E+01  0.50000500000E+01  0.51100000000E-03 0.  1.
     100001    1    1    2    0    0 -0.10687900740E-01 -0.41717318386E-03 -0.19636630167E-01  0.50000500000E+01  0.50000000000E+01 0.  0.
     100001    1    1    2    0    0  0.10687900740E-01  0.41717318386E-03  0.19636630167E-01  0.50000500000E+01  0.50000000000E+01 0. -1.
</event>
<event>
 4    1  0.4919875E-001  0.5000050E+01  0.7818608E-02  0.2136455E+00
        -11   -1    0    0    0    0  0.00000000000E+00  0.00000000000E+00  0.50000499739E+01  0.50000500000E+01  0.51100000000E-03 0.  1.
         11   -1    0    0    0    0 -0.00000000000E+00 -0.00000000000E+00 -0.50000499739E+01  0.50000500000E+01  0.51100000000E-03 0. -1.
     100001    1    1    2    0    0  0.75753419117E-02  0.19337267470E-01  0.82877488929E-02  0.50000500000E+01  0.50000000000E+01 0.  1.
     100001    1    1    2    0    0 -0.75753419117E-02 -0.19337267470E-01 -0.82877488929E-02  0.50000500000E+01  0.50000000000E+01 0.  0.
</event>
<event>
 4    1  0.4919875E-001  0.5000050E+01  0.7818608E-02  0.2136455E+00
        -11   -1    0    0    0    0  0.00000000000E+00  0.00000000000E+00  0.50000499739E+01  0.50000500000E+01  0.51100000000E-03 0.  1.
         11   -1    0    0    0    0 -0.00000000000E+00 -0.00000000000E+00 -0.50000499739E+01  0.50000500000E+01  0.51100000000E-03 0. -1.
     100001    1    1    2    0    0  0.15828267080E-01  0.15776628418E-01  0.75263338610E-03  0.50000500000E+01  0.50000000000E+01 0.  1.
     100001    1    1    2    0    0 -0.15828267080E-01 -0.15776628418E-01 -0.75263338610E-03  0.50000500000E+01  0.50000000000E+01 0. -1.
</event>
<event>
 4    1  0.4919875E-001  0.5000050E+01  0.7818608E-02  0.2136455E+00
        -11   -1    0    0    0    0  0.00000000000E+00  0.00000000000E+00  0.50000499739E+01  0.50000500000E+01  0.51100000000E-03 0.  1.
         11   -1    0    0    0    0 -0.00000000000E+00 -0.00000000000E+00 -0.50000499739E+01  0.50000500000E+01  0.51100000000E-03 0. -1.
     100001    1    1    2    0    0  0.15873914981E-02 -0.20972322402E-01 -0.75923896960E-02  0.50000500000E+01  0.50000000000E+01 0.  0.
     100001    1    1    2    0    0 -0.15873914981E-02  0.20972322402E-01  0.75923896960E-02  0.50000500000E+01  0.50000000000E+01 0. -1.
</event>
<event>
 4    1  0.4919875E-001  0.5000050E+01  0.7818608E-02  0.2136455E+00
        -11   -1    0    0    0    0  0.00000000000E+00  0.00000000000E+00  0.50000499739E+01  0.50000500000E+01  0.51100000000E-03 0. -1.
         11   -1    0    0    0    0 -0.00000000000E+00 -0.00000000000E+00 -0.50000499739E+01  0.50000500000E+01  0.51100000000E-03 0.  1.
     100001    1    1    2    0    0  0.19710156280E-01 -0.10510563281E-01  0.10199504571E-02  0.50000500000E+01  0.50000000000E+01 0.  1.
     100001    1    1    2    0    0 -0.19710156280E-01  0.10510563281E-01 -0.10199504571E-02  0.50000500000E+01  0.50000000000E+01 0.  0.
</event>
<event>
 4    1  0.4919875E-001  0.5000050E+01  0.7818608E-02  0.2136455E+00
        -11   -1    0    0    0    0  0.00000000000E+00  0.00000000000E+00  0.50000499739E+01  0.50000500000E+01  0.51100000000E-03 0. -1.
         11   -1    0    0    0    0 -0.00000000000E+00 -0.00000000000E+00 -0.50000499739E+01  0.50000500000E+01  0.51100000000E-03 0.  1.
     100001    1    1    2    0    0 -0.71998167679E-02  0.52970614384E-02 -0.20496494301E-01  0.50000500000E+01  0.50000000000E+01 0.  0.
     100001    1    1    2    0    0  0.71998167679E-02 -0.52970614384E-02  0.20496494301E-01  0.50000500000E+01  0.50000000000E+01 0. -1.
</event>
<event>
 4    1  0.4919875E-001  0.5000050E+01  0.7818608E-02  0.2136455E+00
        -11   -1    0    0    0    0  0.00000000000E+00  0.00000000000E+00  0.50000499739E+01  0.50000500000E+01  0.51100000000E-03 0. -1.
         11   -1    0    0    0    0 -0.00000000000E+00 -0.00000000000E+00 -0.50000499739E+01  0.50000500000E+01  0.51100000000E-03 0.  1.
     100001    1    1    2    0    0  0.52778411146E-02 -0.15202716814E-02  0.21675693003E-01  0.50000500000E+01  0.50000000000E+01 0. -1.
     100001    1    1    2    0    0 -0.52778411146E-02  0.15202716814E-02 -0.21675693003E-01  0.50000500000E+01  0.50000000000E+01 0.  1.
</event>
<event>
 4    1  0.4919875E-001  0.5000050E+01  0.7818608E-02  0.2136455E+00
        -11   -1    0    0    0    0  0.00000000000E+00  0.00000000000E+00  0.50000499739E+01  0.50000500000E+01  0.51100000000E-03 0.  1.
         11   -1    0    0    0    0 -0.00000000000E+00 -0.00000000000E+00 -0.50000499739E+01  0.50000500000E+01  0.51100000000E-03 0. -1.
     100001    1    1    2    0    0 -0.15519022215E-01 -0.15837779151E-01 -0.28856890062E-02  0.50000500000E+01  0.50000000000E+01 0. -1.
     100001    1    1    2    0    0  0.15519022215E-01  0.15837779151E-01  0.28856890062E-02  0.50000500000E+01  0.50000000000E+01 0.  1.
</event>
<event>
 4    1  0.4919875E-001  0.5000050E+01  0.7818608E-02  0.2136455E+00
        -11   -1    0    0    0    0  0.00000000000E+00  0.00000000000E+00  0.50000499739E+01  0.50000500000E+01  0.51100000000E-03 0. -1.
         11   -1    0    0    0    0 -0.00000000000E+00 -0.00000000000E+00 -0.50000499739E+01  0.50000500000E+01  0.51100000000E-03 0.  1.
     100001    1    1    2    0    0  0.76336889029E-02  0.80202559651E-03  0.21002048678E-01  0.50000500000E+01  0.50000000000E+01 0. -1.
     100001    1    1    2    0    0 -0.76336889029E-02 -0.80202559651E-03 -0.21002048678E-01  0.50000500000E+01  0.50000000000E+01 0.  1.
</event>
<event>
 4    1  0.4919875E-001  0.5000050E+01  0.7818608E-02  0.2136455E+00
        -11   -1    0    0    0    0  0.00000000000E+00  0.00000000000E+00  0.50000499739E+01  0.50000500000E+01  0.51100000000E-03 0.  1.
         11   -1    0    0    0    0 -0.00000000000E+00 -0.00000000000E+00 -0.50000499739E+01  0.50000500000E+01  0.51100000000E-03 0. -1.
     100001    1    1    2    0    0 -0.21333982844E-01 -0.66928403837E-02 -0.26374917135E-03  0.50000500000E+01  0.50000000000E+01 0. -1.
     100001    1    1    2    0    0  0.21333982844E-01  0.66928403837E-02  0.26374917135E-03  0.50000500000E+01  0.50000000000E+01 0.  0.
</event>
<event>
 4    1  0.4919875E-001  0.5000050E+01  0.7818608E-02  0.2136455E+00
        -11   -1    0    0    0    0  0.00000000000E+00  0.00000000000E+00  0.50000499739E+01  0.50000500000E+01  0.51100000000E-03 0. -1.
         11   -1    0    0    0    0 -0.00000000000E+00 -0.00000000000E+00 -0.50000499739E+01  0.50000500000E+01  0.51100000000E-03 0.  1.
     100001    1    1    2    0    0 -0.15435615854E-01 -0.15331562952E-01  0.51659888362E-02  0.50000500000E+01  0.50000000000E+01 0.  0.
     100001    1    1    2    0    0  0.15435615854E-01  0.15331562952E-01 -0.51659888362E-02  0.50000500000E+01  0.50000000000E+01 0. -1.
</event>
<event>
 4    1  0.4919875E-001  0.5000050E+01  0.7818608E-02  0.2136455E+00
        -11   -1    0    0    0    0  0.00000000000E+00  0.00000000000E+00  0.50000499739E+01  0.50000500000E+01  0.51100000000E-03 0. -1.
         11   -1    0    0    0    0 -0.00000000000E+00 -0.00000000000E+00 -0.50000499739E+01  0.50000500000E+01  0.51100000000E-03 0.  1.
     100001    1    1    2    0    0 -0.10512861475E-01  0.10154673743E-01  0.16922317949E-01  0.50000500000E+01  0.50000000000E+01 0.  0.
     100001    1    1    2    0    0  0.10512861475E-01 -0.10154673743E-01 -0.16922317949E-01  0.50000500000E+01  0.50000000000E+01 0.  0.
</event>
<event>
 4    1  0.4919875E-001  0.5000050E+01  0.7818608E-02  0.2136455E+00
        -11   -1    0    0    0    0  0.00000000000E+00  0.00000000000E+00  0.50000499739E+01  0.50000500000E+01  0.51100000000E-03 0. -1.
         11   -1    0    0    0    0 -0.00000000000E+00 -0.00000000000E+00 -0.50000499739E+01  0.50000500000E+01  0.51100000000E-03 0.  1.
     100001    1    1    2    0    0  0.74900948567E-02  0.53060093020E-02 -0.20389880930E-01  0.50000500000E+01  0.50000000000E+01 0.  0.
     100001    1    1    2    0    0 -0.74900948567E-02 -0.53060093020E-02  0.20389880930E-01  0.50000500000E+01  0.50000000000E+01 0. -1.
</event>
<event>
 4    1  0.4919875E-001  0.5000050E+01  0.7818608E-02  0.2136455E+00
        -11   -1    0    0    0    0  0.00000000000E+00  0.00000000000E+00  0.50000499739E+01  0.50000500000E+01  0.51100000000E-03 0.  1.
         11   -1    0    0    0    0 -0.00000000000E+00 -0.00000000000E+00 -0.50000499739E+01  0.50000500000E+01  0.51100000000E-03 0. -1.
     100001    1    1    2    0    0 -0.29996417283E-02  0.12422386563E-01  0.18349086124E-01  0.50000500000E+01  0.50000000000E+01 0.  1.
     100001    1    1    2    0    0  0.29996417283E-02 -0.12422386563E-01 -0.18349086124E-01  0.50000500000E+01  0.50000000000E+01 0.  0.
</event>
<event>
 4    1  0.4919875E-001  0.5000050E+01  0.7818608E-02  0.2136455E+00
        -11   -1    0    0    0    0  0.00000000000E+00  0.00000000000E+00  0.50000499739E+01  0.50000500000E+01  0.51100000000E-03 0.  1.
         11   -1    0    0    0    0 -0.00000000000E+00 -0.00000000000E+00 -0.50000499739E+01  0.50000500000E+01  0.51100000000E-03 0. -1.
     100001    1    1    2    0    0  0.15796348359E-01 -0.15319488181E-01  0.39738093052E-02  0.50000500000E+01  0.50000000000E+01 0.  0.
     100001    1    1    2    0    0 -0.15796348359E-01  0.15319488181E-01 -0.39738093052E-02  0.50000500000E+01  0.50000000000E+01 0.  1.
</event>
<event>
 4    1  0.4919875E-001  0.5000050E+01  0.7818608E-02  0.2136455E+00
        -11   -1    0    0    0    0  0.00000000000E+00  0.00000000000E+00  0.50000499739E+01  0.50000500000E+01  0.51100000000E-03 0. -1.
         11   -1    0    0    0    0 -0.00000000000E+00 -0.00000000000E+00 -0.50000499739E+01  0.50000500000E+01  0.51100000000E-03 0.  1.
     100001    1    1    2    0    0  0.84789066098E-02  0.68567050107E-02 -0.19521686379E-01  0.50000500000E+01  0.50000000000E+01 0.  1.
     100001    1    1    2    0    0 -0.84789066098E-02 -0.68567050107E-02  0.19521686379E-01  0.50000500000E+01  0.50000000000E+01 0. -1.
</event>
<event>
 4    1  0.4919875E-001  0.5000050E+01  0.7818608E-02  0.2136455E+00
        -11   -1    0    0    0    0  0.00000000000E+00  0.00000000000E+00  0.50000499739E+01  0.50000500000E+01  0.51100000000E-03 0. -1.
         11   -1    0    0    0    0 -0.00000000000E+00 -0.00000000000E+00 -0.50000499739E+01  0.50000500000E+01  0.51100000000E-03 0.  1.
     100001    1    1    2    0    0  0.11958728438E-02 -0.13592152183E-01 -0.17715128765E-01  0.50000500000E+01  0.50000000000E+01 0.  1.
     100001    1    1    2    0    0 -0.11958728438E-02  0.13592152183E-01  0.17715128765E-01  0.50000500000E+01  0.50000000000E+01 0. -1.
</event>
<event>
 4    1  0.4919875E-001  0.5000050E+01  0.7818608E-02  0.2136455E+00
        -11   -1    0    0    0    0  0.00000000000E+00  0.00000000000E+00  0.50000499739E+01  0.50000500000E+01  0.51100000000E-03 0. -1.
         11   -1    0    0    0    0 -0.00000000000E+00 -0.00000000000E+00 -0.50000499739E+01  0.50000500000E+01  0.51100000000E-03 0.  1.
     100001    1    1    2    0    0  0.15513331453E-01  0.13751204528E-01 -0.83811348434E-02  0.50000500000E+01  0.50000000000E+01 0.  1.
     100001    1    1    2    0    0 -0.15513331453E-01 -0.13751204528E-01  0.83811348434E-02  0.50000500000E+01  0.50000000000E+01 0. -1.
</event>
<event>
 4    1  0.4919875E-001  0.5000050E+01  0.7818608E-02  0.2136455E+00
        -11   -1    0    0    0    0  0.00000000000E+00  0.00000000000E+00  0.50000499739E+01  0.50000500000E+01  0.51100000000E-03 0.  1.
         11   -1    0    0    0    0 -0.00000000000E+00 -0.00000000000E+00 -0.50000499739E+01  0.50000500000E+01  0.51100000000E-03 0. -1.
     100001    1    1    2    0    0  0.16162082623E-01 -0.51552652626E-02  0.14567526398E-01  0.50000500000E+01  0.50000000000E+01 0.  1.
     100001    1    1    2    0    0 -0.16162082623E-01  0.51552652626E-02 -0.14567526398E-01  0.50000500000E+01  0.50000000000E+01 0. -1.
</event>
<event>
 4    1  0.4919875E-001  0.5000050E+01  0.7818608E-02  0.2136455E+00
        -11   -1    0    0    0    0  0.00000000000E+00  0.00000000000E+00  0.50000499739E+01  0.50000500000E+01  0.51100000000E-03 0.  1.
         11   -1    0    0    0    0 -0.00000000000E+00 -0.00000000000E+00 -0.50000499739E+01  0.50000500000E+01  0.51100000000E-03 0. -1.
     100001    1    1    2    0    0 -0.86534436024E-02  0.18530582780E-01 -0.90409023696E-02  0.50000500000E+01  0.50000000000E+01 0.  0.
     100001    1    1    2    0    0  0.86534436024E-02 -0.18530582780E-01  0.90409023696E-02  0.50000500000E+01  0.50000000000E+01 0.  0.
</event>
<event>
 4    1  0.4919875E-001  0.5000050E+01  0.7818608E-02  0.2136455E+00
        -11   -1    0    0    0    0  0.00000000000E+00  0.00000000000E+00  0.50000499739E+01  0.50000500000E+01  0.51100000000E-03 0. -1.
         11   -1    0    0    0    0 -0.00000000000E+00 -0.00000000000E+00 -0.50000499739E+01  0.50000500000E+01  0.51100000000E-03 0.  1.
     100001    1    1    2    0    0  0.14830446845E-01  0.41790184964E-02 -0.16204818752E-01  0.50000500000E+01  0.50000000000E+01 0.  1.
     100001    1    1    2    0    0 -0.14830446845E-01 -0.41790184964E-02  0.16204818752E-01  0.50000500000E+01  0.50000000000E+01 0. -1.
</event>
<event>
 4    1  0.4919875E-001  0.5000050E+01  0.7818608E-02  0.2136455E+00
        -11   -1    0    0    0    0  0.00000000000E+00  0.00000000000E+00  0.50000499739E+01  0.50000500000E+01  0.51100000000E-03 0.  1.
         11   -1    0    0    0    0 -0.00000000000E+00 -0.00000000000E+00 -0.50000499739E+01  0.50000500000E+01  0.51100000000E-03 0. -1.
     100001    1    1    2    0    0  0.19216622551E-01 -0.10714357193E-01  0.39907978719E-02  0.50000500000E+01  0.50000000000E+01 0. -1.
     100001    1    1    2    0    0 -0.19216622551E-01  0.10714357193E-01 -0.39907978719E-02  0.50000500000E+01  0.50000000000E+01 0.  0.
</event>
<event>
 4    1  0.4919875E-001  0.5000050E+01  0.7818608E-02  0.2136455E+00
        -11   -1    0    0    0    0  0.00000000000E+00  0.00000000000E+00  0.50000499739E+01  0.50000500000E+01  0.51100000000E-03 0.  1.
         11   -1    0    0    0    0 -0.00000000000E+00 -0.00000000000E+00 -0.50000499739E+01  0.50000500000E+01  0.51100000000E-03 0. -1.
     100001    1    1    2    0    0  0.19933798449E-01  0.51671650198E-02 -0.87147337900E-02  0.50000500000E+01  0.50000000000E+01 0.  0.
     100001    1    1    2    0    0 -0.19933798449E-01 -0.51671650198E-02  0.87147337900E-02  0.50000500000E+01  0.50000000000E+01 0.  0.
</event>
<event>
 4    1  0.4919875E-001  0.5000050E+01  0.7818608E-02  0.2136455E+00
        -11   -1    0    0    0    0  0.00000000000E+00  0.00000000000E+00  0.50000499739E+01  0.50000500000E+01  0.51100000000E-03 0.  1.
         11   -1    0    0    0    0 -0.00000000000E+00 -0.00000000000E+00 -0.50000499739E+01  0.50000500000E+01  0.51100000000E-03 0. -1.
     100001    1    1    2    0    0  0.46950165201E-02  0.87026244721E-02 -0.20055514134E-01  0.50000500000E+01  0.50000000000E+01 0. -1.
     100001    1    1    2    0    0 -0.46950165201E-02 -0.87026244721E-02  0.20055514134E-01  0.50000500000E+01  0.50000000000E+01 0.  1.
</event>
<event>
 4    1  0.4919875E-001  0.5000050E+01  0.7818608E-02  0.2136455E+00
        -11   -1    0    0    0    0  0.00000000000E+00  0.00000000000E+00  0.50000499739E+01  0.50000500000E+01  0.51100000000E-03 0.  1.
         11   -1    0    0    0    0 -0.00000000000E+00 -0.00000000000E+00 -0.50000499739E+01  0.50000500000E+01  0.51100000000E-03 0. -1.
     100001    1    1    2    0    0 -0.10843438199E-01 -0.12445892170E-01 -0.15083836253E-01  0.50000500000E+01  0.50000000000E+01 0.  0.
     100001    1    1    2    0    0  0.10843438199E-01  0.12445892170E-01  0.15083836253E-01  0.50000500000E+01  0.50000000000E+01 0.  0.
</event>
<event>
 4    1  0.4919875E-001  0.5000050E+01  0.7818608E-02  0.2136455E+00
        -11   -1    0    0    0    0  0.00000000000E+00  0.00000000000E+00  0.50000499739E+01  0.50000500000E+01  0.51100000000E-03 0.  1.
         11   -1    0    0    0    0 -0.00000000000E+00 -0.00000000000E+00 -0.50000499739E+01  0.50000500000E+01  0.51100000000E-03 0. -1.
     100001    1    1    2    0    0  0.20435284519E-01 -0.89469878646E-02 -0.15339670087E-02  0.50000500000E+01  0.50000000000E+01 0. -1.
     100001    1    1    2    0    0 -0.20435284519E-01  0.89469878646E-02  0.15339670087E-02  0.50000500000E+01  0.50000000000E+01 0.  0.
</event>
<event>
 4    1  0.4919875E-001  0.5000050E+01  0.7818608E-02  0.2136455E+00
        -11   -1    0    0    0    0  0.00000000000E+00  0.00000000000E+00  0.50000499739E+01  0.50000500000E+01  0.51100000000E-03 0.  1.
         11   -1    0    0    0    0 -0.00000000000E+00 -0.00000000000E+00 -0.50000499739E+01  0.50000500000E+01  0.51100000000E-03 0. -1.
     100001    1    1    2    0    0 -0.17722613931E-01  0.13262607821E-01  0.31645993834E-02  0.50000500000E+01  0.50000000000E+01 0.  0.
     100001    1    1    2    0    0  0.17722613931E-01 -0.13262607821E-01 -0.31645993834E-02  0.50000500000E+01  0.50000000000E+01 0. -1.
</event>
<event>
 4    1  0.4919875E-001  0.5000050E+01  0.7818608E-02  0.2136455E+00
        -11   -1    0    0    0    0  0.00000000000E+00  0.00000000000E+00  0.50000499739E+01  0.50000500000E+01  0.51100000000E-03 0. -1.
         11   -1    0    0    0    0 -0.00000000000E+00 -0.00000000000E+00 -0.50000499739E+01  0.50000500000E+01  0.51100000000E-03 0.  1.
     100001    1    1    2    0    0 -0.20149296337E-01  0.18399151996E-02 -0.95196149702E-02  0.50000500000E+01  0.50000000000E+01 0. -1.
     100001    1    1    2    0    0  0.20149296337E-01 -0.18399151996E-02  0.95196149702E-02  0.50000500000E+01  0.50000000000E+01 0.  0.
</event>
<event>
 4    1  0.4919875E-001  0.5000050E+01  0.7818608E-02  0.2136455E+00
        -11   -1    0    0    0    0  0.00000000000E+00  0.00000000000E+00  0.50000499739E+01  0.50000500000E+01  0.51100000000E-03 0.  1.
         11   -1    0    0    0    0 -0.00000000000E+00 -0.00000000000E+00 -0.50000499739E+01  0.50000500000E+01  0.51100000000E-03 0. -1.
     100001    1    1    2    0    0  0.59906219260E-02 -0.19384318842E-01  0.94001665932E-02  0.50000500000E+01  0.50000000000E+01 0.  0.
     100001    1    1    2    0    0 -0.59906219260E-02  0.19384318842E-01 -0.94001665932E-02  0.50000500000E+01  0.50000000000E+01 0.  1.
</event>
<event>
 4    1  0.4919875E-001  0.5000050E+01  0.7818608E-02  0.2136455E+00
        -11   -1    0    0    0    0  0.00000000000E+00  0.00000000000E+00  0.50000499739E+01  0.50000500000E+01  0.51100000000E-03 0. -1.
         11   -1    0    0    0    0 -0.00000000000E+00 -0.00000000000E+00 -0.50000499739E+01  0.50000500000E+01  0.51100000000E-03 0.  1.
     100001    1    1    2    0    0 -0.13935543539E-01  0.11387700499E-01 -0.13271149295E-01  0.50000500000E+01  0.50000000000E+01 0.  1.
     100001    1    1    2    0    0  0.13935543539E-01 -0.11387700499E-01  0.13271149295E-01  0.50000500000E+01  0.50000000000E+01 0. -1.
</event>
<event>
 4    1  0.4919875E-001  0.5000050E+01  0.7818608E-02  0.2136455E+00
        -11   -1    0    0    0    0  0.00000000000E+00  0.00000000000E+00  0.50000499739E+01  0.50000500000E+01  0.51100000000E-03 0. -1.
         11   -1    0    0    0    0 -0.00000000000E+00 -0.00000000000E+00 -0.50000499739E+01  0.50000500000E+01  0.51100000000E-03 0.  1.
     100001    1    1    2    0    0 -0.50102564750E-03 -0.17603753795E-01  0.13778945011E-01  0.50000500000E+01  0.50000000000E+01 0.  0.
     100001    1    1    2    0    0  0.50102564750E-03  0.17603753795E-01 -0.13778945011E-01  0.50000500000E+01  0.50000000000E+01 0.  0.
</event>
<event>
 4    1  0.4919875E-001  0.5000050E+01  0.7818608E-02  0.2136455E+00
        -11   -1    0    0    0    0  0.00000000000E+00  0.00000000000E+00  0.50000499739E+01  0.50000500000E+01  0.51100000000E-03 0. -1.
         11   -1    0    0    0    0 -0.00000000000E+00 -0.00000000000E+00 -0.50000499739E+01  0.50000500000E+01  0.51100000000E-03 0.  1.
     100001    1    1    2    0    0  0.92972187997E-02 -0.10636865431E-01  0.17332666165E-01  0.50000500000E+01  0.50000000000E+01 0. -1.
     100001    1    1    2    0    0 -0.92972187997E-02  0.10636865431E-01 -0.17332666165E-01  0.50000500000E+01  0.50000000000E+01 0.  1.
</event>
<event>
 4    1  0.4919875E-001  0.5000050E+01  0.7818608E-02  0.2136455E+00
        -11   -1    0    0    0    0  0.00000000000E+00  0.00000000000E+00  0.50000499739E+01  0.50000500000E+01  0.51100000000E-03 0. -1.
         11   -1    0    0    0    0 -0.00000000000E+00 -0.00000000000E+00 -0.50000499739E+01  0.50000500000E+01  0.51100000000E-03 0.  1.
     100001    1    1    2    0    0  0.65320975209E-02  0.15339790767E-01 -0.14900504059E-01  0.50000500000E+01  0.50000000000E+01 0.  1.
     100001    1    1    2    0    0 -0.65320975209E-02 -0.15339790767E-01  0.14900504059E-01  0.50000500000E+01  0.50000000000E+01 0. -1.
</event>
<event>
 4    1  0.4919875E-001  0.5000050E+01  0.7818608E-02  0.2136455E+00
        -11   -1    0    0    0    0  0.00000000000E+00  0.00000000000E+00  0.50000499739E+01  0.50000500000E+01  0.51100000000E-03 0. -1.
         11   -1    0    0    0    0 -0.00000000000E+00 -0.00000000000E+00 -0.50000499739E+01  0.50000500000E+01  0.51100000000E-03 0.  1.
     100001    1    1    2    0    0 -0.16462005183E-01 -0.45289217255E-02 -0.14439312772E-01  0.50000500000E+01  0.50000000000E+01 0.  0.
     100001    1    1    2    0    0  0.16462005183E-01  0.45289217255E-02  0.14439312772E-01  0.50000500000E+01  0.50000000000E+01 0.  0.
</event>
<event>
 4    1  0.4919875E-001  0.5000050E+01  0.7818608E-02  0.2136455E+00
        -11   -1    0    0    0    0  0.00000000000E+00  0.00000000000E+00  0.50000499739E+01  0.50000500000E+01  0.51100000000E-03 0. -1.
         11   -1    0    0    0    0 -0.00000000000E+00 -0.00000000000E+00 -0.50000499739E+01  0.50000500000E+01  0.51100000000E-03 0.  1.
     100001    1    1    2    0    0  0.84196950146E-02 -0.20609741044E-01 -0.20856198005E-02  0.50000500000E+01  0.50000000000E+01 0.  0.
     100001    1    1    2    0    0 -0.84196950146E-02  0.20609741044E-01  0.20856198005E-02  0.50000500000E+01  0.50000000000E+01 0. -1.
</event>
<event>
 4    1  0.4919875E-001  0.5000050E+01  0.7818608E-02  0.2136455E+00
        -11   -1    0    0    0    0  0.00000000000E+00  0.00000000000E+00  0.50000499739E+01  0.50000500000E+01  0.51100000000E-03 0.  1.
         11   -1    0    0    0    0 -0.00000000000E+00 -0.00000000000E+00 -0.50000499739E+01  0.50000500000E+01  0.51100000000E-03 0. -1.
     100001    1    1    2    0    0 -0.71077495570E-02  0.20513535908E-01 -0.53551135160E-02  0.50000500000E+01  0.50000000000E+01 0. -1.
     100001    1    1    2    0    0  0.71077495570E-02 -0.20513535908E-01  0.53551135160E-02  0.50000500000E+01  0.50000000000E+01 0.  1.
</event>
<event>
 4    1  0.4919875E-001  0.5000050E+01  0.7818608E-02  0.2136455E+00
        -11   -1    0    0    0    0  0.00000000000E+00  0.00000000000E+00  0.50000499739E+01  0.50000500000E+01  0.51100000000E-03 0.  1.
         11   -1    0    0    0    0 -0.00000000000E+00 -0.00000000000E+00 -0.50000499739E+01  0.50000500000E+01  0.51100000000E-03 0. -1.
     100001    1    1    2    0    0  0.11629604640E-01 -0.12836227097E-01 -0.14141643110E-01  0.50000500000E+01  0.50000000000E+01 0.  0.
     100001    1    1    2    0    0 -0.11629604640E-01  0.12836227097E-01  0.14141643110E-01  0.50000500000E+01  0.50000000000E+01 0.  0.
</event>
<event>
 4    1  0.4919875E-001  0.5000050E+01  0.7818608E-02  0.2136455E+00
        -11   -1    0    0    0    0  0.00000000000E+00  0.00000000000E+00  0.50000499739E+01  0.50000500000E+01  0.51100000000E-03 0.  1.
         11   -1    0    0    0    0 -0.00000000000E+00 -0.00000000000E+00 -0.50000499739E+01  0.50000500000E+01  0.51100000000E-03 0. -1.
     100001    1    1    2    0    0  0.55758185730E-02  0.88626816222E-02  0.19757672477E-01  0.50000500000E+01  0.50000000000E+01 0.  0.
     100001    1    1    2    0    0 -0.55758185730E-02 -0.88626816222E-02 -0.19757672477E-01  0.50000500000E+01  0.50000000000E+01 0. -1.
</event>
<event>
 4    1  0.4919875E-001  0.5000050E+01  0.7818608E-02  0.2136455E+00
        -11   -1    0    0    0    0  0.00000000000E+00  0.00000000000E+00  0.50000499739E+01  0.50000500000E+01  0.51100000000E-03 0.  1.
         11   -1    0    0    0    0 -0.00000000000E+00 -0.00000000000E+00 -0.50000499739E+01  0.50000500000E+01  0.51100000000E-03 0. -1.
     100001    1    1    2    0    0  0.17972509840E-02  0.21591762185E-01  0.55288511128E-02  0.50000500000E+01  0.50000000000E+01 0.  0.
     100001    1    1    2    0    0 -0.17972509840E-02 -0.21591762185E-01 -0.55288511128E-02  0.50000500000E+01  0.50000000000E+01 0.  0.
</event>
<event>
 4    1  0.4919875E-001  0.5000050E+01  0.7818608E-02  0.2136455E+00
        -11   -1    0    0    0    0  0.00000000000E+00  0.00000000000E+00  0.50000499739E+01  0.50000500000E+01  0.51100000000E-03 0. -1.
         11   -1    0    0    0    0 -0.00000000000E+00 -0.00000000000E+00 -0.50000499739E+01  0.50000500000E+01  0.51100000000E-03 0.  1.
     100001    1    1    2    0    0 -0.62910587845E-03  0.17779993833E-01  0.13545425246E-01  0.50000500000E+01  0.50000000000E+01 0. -1.
     100001    1    1    2    0    0  0.62910587845E-03 -0.17779993833E-01 -0.13545425246E-01  0.50000500000E+01  0.50000000000E+01 0.  1.
</event>
<event>
 4    1  0.4919875E-001  0.5000050E+01  0.7818608E-02  0.2136455E+00
        -11   -1    0    0    0    0  0.00000000000E+00  0.00000000000E+00  0.50000499739E+01  0.50000500000E+01  0.51100000000E-03 0.  1.
         11   -1    0    0    0    0 -0.00000000000E+00 -0.00000000000E+00 -0.50000499739E+01  0.50000500000E+01  0.51100000000E-03 0. -1.
     100001    1    1    2    0    0  0.18219145426E-01  0.12654386438E-01  0.28163351726E-02  0.50000500000E+01  0.50000000000E+01 0.  1.
     100001    1    1    2    0    0 -0.18219145426E-01 -0.12654386438E-01 -0.28163351726E-02  0.50000500000E+01  0.50000000000E+01 0. -1.
</event>
<event>
 4    1  0.4919875E-001  0.5000050E+01  0.7818608E-02  0.2136455E+00
        -11   -1    0    0    0    0  0.00000000000E+00  0.00000000000E+00  0.50000499739E+01  0.50000500000E+01  0.51100000000E-03 0. -1.
         11   -1    0    0    0    0 -0.00000000000E+00 -0.00000000000E+00 -0.50000499739E+01  0.50000500000E+01  0.51100000000E-03 0.  1.
     100001    1    1    2    0    0  0.10302797766E-01  0.46641050410E-02 -0.19289919190E-01  0.50000500000E+01  0.50000000000E+01 0.  0.
     100001    1    1    2    0    0 -0.10302797766E-01 -0.46641050410E-02  0.19289919190E-01  0.50000500000E+01  0.50000000000E+01 0.  0.
</event>
<event>
 4    1  0.4919875E-001  0.5000050E+01  0.7818608E-02  0.2136455E+00
        -11   -1    0    0    0    0  0.00000000000E+00  0.00000000000E+00  0.50000499739E+01  0.50000500000E+01  0.51100000000E-03 0.  1.
         11   -1    0    0    0    0 -0.00000000000E+00 -0.00000000000E+00 -0.50000499739E+01  0.50000500000E+01  0.51100000000E-03 0. -1.
     100001    1    1    2    0    0 -0.26948117733E-02 -0.20858292332E-01  0.75942169101E-02  0.50000500000E+01  0.50000000000E+01 0. -1.
     100001    1    1    2    0    0  0.26948117733E-02  0.20858292332E-01 -0.75942169101E-02  0.50000500000E+01  0.50000000000E+01 0.  0.
</event>
<event>
 4    1  0.4919875E-001  0.5000050E+01  0.7818608E-02  0.2136455E+00
        -11   -1    0    0    0    0  0.00000000000E+00  0.00000000000E+00  0.50000499739E+01  0.50000500000E+01  0.51100000000E-03 0. -1.
         11   -1    0    0    0    0 -0.00000000000E+00 -0.00000000000E+00 -0.50000499739E+01  0.50000500000E+01  0.51100000000E-03 0.  1.
     100001    1    1    2    0    0 -0.40320133609E-02 -0.16278889708E-01 -0.14789966807E-01  0.50000500000E+01  0.50000000000E+01 0.  1.
     100001    1    1    2    0    0  0.40320133609E-02  0.16278889708E-01  0.14789966807E-01  0.50000500000E+01  0.50000000000E+01 0.  0.
</event>
<event>
 4    1  0.4919875E-001  0.5000050E+01  0.7818608E-02  0.2136455E+00
        -11   -1    0    0    0    0  0.00000000000E+00  0.00000000000E+00  0.50000499739E+01  0.50000500000E+01  0.51100000000E-03 0.  1.
         11   -1    0    0    0    0 -0.00000000000E+00 -0.00000000000E+00 -0.50000499739E+01  0.50000500000E+01  0.51100000000E-03 0. -1.
     100001    1    1    2    0    0  0.17190003673E-01 -0.12693720331E-01  0.65860259539E-02  0.50000500000E+01  0.50000000000E+01 0.  0.
     100001    1    1    2    0    0 -0.17190003673E-01  0.12693720331E-01 -0.65860259539E-02  0.50000500000E+01  0.50000000000E+01 0.  1.
</event>
<event>
 4    1  0.4919875E-001  0.5000050E+01  0.7818608E-02  0.2136455E+00
        -11   -1    0    0    0    0  0.00000000000E+00  0.00000000000E+00  0.50000499739E+01  0.50000500000E+01  0.51100000000E-03 0.  1.
         11   -1    0    0    0    0 -0.00000000000E+00 -0.00000000000E+00 -0.50000499739E+01  0.50000500000E+01  0.51100000000E-03 0. -1.
     100001    1    1    2    0    0 -0.21552180734E-01  0.57426792899E-02  0.15898553951E-02  0.50000500000E+01  0.50000000000E+01 0. -1.
     100001    1    1    2    0    0  0.21552180734E-01 -0.57426792899E-02 -0.15898553951E-02  0.50000500000E+01  0.50000000000E+01 0.  1.
</event>
<event>
 4    1  0.4919875E-001  0.5000050E+01  0.7818608E-02  0.2136455E+00
        -11   -1    0    0    0    0  0.00000000000E+00  0.00000000000E+00  0.50000499739E+01  0.50000500000E+01  0.51100000000E-03 0.  1.
         11   -1    0    0    0    0 -0.00000000000E+00 -0.00000000000E+00 -0.50000499739E+01  0.50000500000E+01  0.51100000000E-03 0. -1.
     100001    1    1    2    0    0 -0.12661647225E-01  0.14375967978E-01  0.11533288094E-01  0.50000500000E+01  0.50000000000E+01 0. -1.
     100001    1    1    2    0    0  0.12661647225E-01 -0.14375967978E-01 -0.11533288094E-01  0.50000500000E+01  0.50000000000E+01 0.  0.
</event>
<event>
 4    1  0.4919875E-001  0.5000050E+01  0.7818608E-02  0.2136455E+00
        -11   -1    0    0    0    0  0.00000000000E+00  0.00000000000E+00  0.50000499739E+01  0.50000500000E+01  0.51100000000E-03 0. -1.
         11   -1    0    0    0    0 -0.00000000000E+00 -0.00000000000E+00 -0.50000499739E+01  0.50000500000E+01  0.51100000000E-03 0.  1.
     100001    1    1    2    0    0  0.21922724481E-01  0.32625326047E-02  0.29584679053E-02  0.50000500000E+01  0.50000000000E+01 0. -1.
     100001    1    1    2    0    0 -0.21922724481E-01 -0.32625326047E-02 -0.29584679053E-02  0.50000500000E+01  0.50000000000E+01 0.  0.
</event>
<event>
 4    1  0.4919875E-001  0.5000050E+01  0.7818608E-02  0.2136455E+00
        -11   -1    0    0    0    0  0.00000000000E+00  0.00000000000E+00  0.50000499739E+01  0.50000500000E+01  0.51100000000E-03 0. -1.
         11   -1    0    0    0    0 -0.00000000000E+00 -0.00000000000E+00 -0.50000499739E+01  0.50000500000E+01  0.51100000000E-03 0.  1.
     100001    1    1    2    0    0 -0.87417034569E-02  0.15111320342E-01 -0.13972584521E-01  0.50000500000E+01  0.50000000000E+01 0.  1.
     100001    1    1    2    0    0  0.87417034569E-02 -0.15111320342E-01  0.13972584521E-01  0.50000500000E+01  0.50000000000E+01 0. -1.
</event>
<event>
 4    1  0.4919875E-001  0.5000050E+01  0.7818608E-02  0.2136455E+00
        -11   -1    0    0    0    0  0.00000000000E+00  0.00000000000E+00  0.50000499739E+01  0.50000500000E+01  0.51100000000E-03 0.  1.
         11   -1    0    0    0    0 -0.00000000000E+00 -0.00000000000E+00 -0.50000499739E+01  0.50000500000E+01  0.51100000000E-03 0. -1.
     100001    1    1    2    0    0 -0.19149389863E-01 -0.88893728869E-02 -0.73676602485E-02  0.50000500000E+01  0.50000000000E+01 0.  0.
     100001    1    1    2    0    0  0.19149389863E-01  0.88893728869E-02  0.73676602485E-02  0.50000500000E+01  0.50000000000E+01 0. -1.
</event>
<event>
 4    1  0.4919875E-001  0.5000050E+01  0.7818608E-02  0.2136455E+00
        -11   -1    0    0    0    0  0.00000000000E+00  0.00000000000E+00  0.50000499739E+01  0.50000500000E+01  0.51100000000E-03 0.  1.
         11   -1    0    0    0    0 -0.00000000000E+00 -0.00000000000E+00 -0.50000499739E+01  0.50000500000E+01  0.51100000000E-03 0. -1.
     100001    1    1    2    0    0 -0.36117542695E-02 -0.20604118889E-01 -0.79011401656E-02  0.50000500000E+01  0.50000000000E+01 0. -1.
     100001    1    1    2    0    0  0.36117542695E-02  0.20604118889E-01  0.79011401656E-02  0.50000500000E+01  0.50000000000E+01 0. -1.
</event>
<event>
 4    1  0.4919875E-001  0.5000050E+01  0.7818608E-02  0.2136455E+00
        -11   -1    0    0    0    0  0.00000000000E+00  0.00000000000E+00  0.50000499739E+01  0.50000500000E+01  0.51100000000E-03 0. -1.
         11   -1    0    0    0    0 -0.00000000000E+00 -0.00000000000E+00 -0.50000499739E+01  0.50000500000E+01  0.51100000000E-03 0.  1.
     100001    1    1    2    0    0 -0.12281387444E-01 -0.16603752115E-01  0.85723647949E-02  0.50000500000E+01  0.50000000000E+01 0.  0.
     100001    1    1    2    0    0  0.12281387444E-01  0.16603752115E-01 -0.85723647949E-02  0.50000500000E+01  0.50000000000E+01 0.  1.
</event>
<event>
 4    1  0.4919875E-001  0.5000050E+01  0.7818608E-02  0.2136455E+00
        -11   -1    0    0    0    0  0.00000000000E+00  0.00000000000E+00  0.50000499739E+01  0.50000500000E+01  0.51100000000E-03 0. -1.
         11   -1    0    0    0    0 -0.00000000000E+00 -0.00000000000E+00 -0.50000499739E+01  0.50000500000E+01  0.51100000000E-03 0.  1.
     100001    1    1    2    0    0 -0.21434805182E-01  0.56060360283E-02  0.30205937937E-02  0.50000500000E+01  0.50000000000E+01 0. -1.
     100001    1    1    2    0    0  0.21434805182E-01 -0.56060360283E-02 -0.30205937937E-02  0.50000500000E+01  0.50000000000E+01 0.  1.
</event>
<event>
 4    1  0.4919875E-001  0.5000050E+01  0.7818608E-02  0.2136455E+00
        -11   -1    0    0    0    0  0.00000000000E+00  0.00000000000E+00  0.50000499739E+01  0.50000500000E+01  0.51100000000E-03 0.  1.
         11   -1    0    0    0    0 -0.00000000000E+00 -0.00000000000E+00 -0.50000499739E+01  0.50000500000E+01  0.51100000000E-03 0. -1.
     100001    1    1    2    0    0  0.18971659402E-01  0.10492054943E-01  0.54768077022E-02  0.50000500000E+01  0.50000000000E+01 0.  1.
     100001    1    1    2    0    0 -0.18971659402E-01 -0.10492054943E-01 -0.54768077022E-02  0.50000500000E+01  0.50000000000E+01 0. -1.
</event>
<event>
 4    1  0.4919875E-001  0.5000050E+01  0.7818608E-02  0.2136455E+00
        -11   -1    0    0    0    0  0.00000000000E+00  0.00000000000E+00  0.50000499739E+01  0.50000500000E+01  0.51100000000E-03 0.  1.
         11   -1    0    0    0    0 -0.00000000000E+00 -0.00000000000E+00 -0.50000499739E+01  0.50000500000E+01  0.51100000000E-03 0. -1.
     100001    1    1    2    0    0  0.36383977900E-03 -0.18653196420E-01 -0.12325923249E-01  0.50000500000E+01  0.50000000000E+01 0. -1.
     100001    1    1    2    0    0 -0.36383977900E-03  0.18653196420E-01  0.12325923249E-01  0.50000500000E+01  0.50000000000E+01 0.  1.
</event>
<event>
 4    1  0.4919875E-001  0.5000050E+01  0.7818608E-02  0.2136455E+00
        -11   -1    0    0    0    0  0.00000000000E+00  0.00000000000E+00  0.50000499739E+01  0.50000500000E+01  0.51100000000E-03 0. -1.
         11   -1    0    0    0    0 -0.00000000000E+00 -0.00000000000E+00 -0.50000499739E+01  0.50000500000E+01  0.51100000000E-03 0.  1.
     100001    1    1    2    0    0  0.54028770692E-02  0.10696966451E-01  0.18878197163E-01  0.50000500000E+01  0.50000000000E+01 0. -1.
     100001    1    1    2    0    0 -0.54028770692E-02 -0.10696966451E-01 -0.18878197163E-01  0.50000500000E+01  0.50000000000E+01 0.  1.
</event>
<event>
 4    1  0.4919875E-001  0.5000050E+01  0.7818608E-02  0.2136455E+00
        -11   -1    0    0    0    0  0.00000000000E+00  0.00000000000E+00  0.50000499739E+01  0.50000500000E+01  0.51100000000E-03 0. -1.
         11   -1    0    0    0    0 -0.00000000000E+00 -0.00000000000E+00 -0.50000499739E+01  0.50000500000E+01  0.51100000000E-03 0.  1.
     100001    1    1    2    0    0 -0.10199330163E-01 -0.16463256836E-01  0.11177537233E-01  0.50000500000E+01  0.50000000000E+01 0.  0.
     100001    1    1    2    0    0  0.10199330163E-01  0.16463256836E-01 -0.11177537233E-01  0.50000500000E+01  0.50000000000E+01 0. -1.
</event>
<event>
 4    1  0.4919875E-001  0.5000050E+01  0.7818608E-02  0.2136455E+00
        -11   -1    0    0    0    0  0.00000000000E+00  0.00000000000E+00  0.50000499739E+01  0.50000500000E+01  0.51100000000E-03 0.  1.
         11   -1    0    0    0    0 -0.00000000000E+00 -0.00000000000E+00 -0.50000499739E+01  0.50000500000E+01  0.51100000000E-03 0. -1.
     100001    1    1    2    0    0 -0.21141412625E-01 -0.56416956655E-02 -0.46059138321E-02  0.50000500000E+01  0.50000000000E+01 0.  0.
     100001    1    1    2    0    0  0.21141412625E-01  0.56416956655E-02  0.46059138321E-02  0.50000500000E+01  0.50000000000E+01 0. -1.
</event>
<event>
 4    1  0.4919875E-001  0.5000050E+01  0.7818608E-02  0.2136455E+00
        -11   -1    0    0    0    0  0.00000000000E+00  0.00000000000E+00  0.50000499739E+01  0.50000500000E+01  0.51100000000E-03 0.  1.
         11   -1    0    0    0    0 -0.00000000000E+00 -0.00000000000E+00 -0.50000499739E+01  0.50000500000E+01  0.51100000000E-03 0. -1.
     100001    1    1    2    0    0  0.89528254620E-02  0.14670361646E-02  0.20437642260E-01  0.50000500000E+01  0.50000000000E+01 0.  0.
     100001    1    1    2    0    0 -0.89528254620E-02 -0.14670361646E-02 -0.20437642260E-01  0.50000500000E+01  0.50000000000E+01 0.  0.
</event>
<event>
 4    1  0.4919875E-001  0.5000050E+01  0.7818608E-02  0.2136455E+00
        -11   -1    0    0    0    0  0.00000000000E+00  0.00000000000E+00  0.50000499739E+01  0.50000500000E+01  0.51100000000E-03 0. -1.
         11   -1    0    0    0    0 -0.00000000000E+00 -0.00000000000E+00 -0.50000499739E+01  0.50000500000E+01  0.51100000000E-03 0.  1.
     100001    1    1    2    0    0  0.12660316358E-01  0.14606470678E-01  0.11241436921E-01  0.50000500000E+01  0.50000000000E+01 0. -1.
     100001    1    1    2    0    0 -0.12660316358E-01 -0.14606470678E-01 -0.11241436921E-01  0.50000500000E+01  0.50000000000E+01 0. -1.
</event>
<event>
 4    1  0.4919875E-001  0.5000050E+01  0.7818608E-02  0.2136455E+00
        -11   -1    0    0    0    0  0.00000000000E+00  0.00000000000E+00  0.50000499739E+01  0.50000500000E+01  0.51100000000E-03 0.  1.
         11   -1    0    0    0    0 -0.00000000000E+00 -0.00000000000E+00 -0.50000499739E+01  0.50000500000E+01  0.51100000000E-03 0. -1.
     100001    1    1    2    0    0 -0.17125333779E-01  0.93388892543E-02  0.10932089939E-01  0.50000500000E+01  0.50000000000E+01 0.  0.
     100001    1    1    2    0    0  0.17125333779E-01 -0.93388892543E-02 -0.10932089939E-01  0.50000500000E+01  0.50000000000E+01 0.  0.
</event>
<event>
 4    1  0.4919875E-001  0.5000050E+01  0.7818608E-02  0.2136455E+00
        -11   -1    0    0    0    0  0.00000000000E+00  0.00000000000E+00  0.50000499739E+01  0.50000500000E+01  0.51100000000E-03 0. -1.
         11   -1    0    0    0    0 -0.00000000000E+00 -0.00000000000E+00 -0.50000499739E+01  0.50000500000E+01  0.51100000000E-03 0.  1.
     100001    1    1    2    0    0  0.79978578445E-02  0.20878395645E-01 -0.35967369688E-03  0.50000500000E+01  0.50000000000E+01 0. -1.
     100001    1    1    2    0    0 -0.79978578445E-02 -0.20878395645E-01  0.35967369688E-03  0.50000500000E+01  0.50000000000E+01 0.  1.
</event>
<event>
 4    1  0.4919875E-001  0.5000050E+01  0.7818608E-02  0.2136455E+00
        -11   -1    0    0    0    0  0.00000000000E+00  0.00000000000E+00  0.50000499739E+01  0.50000500000E+01  0.51100000000E-03 0. -1.
         11   -1    0    0    0    0 -0.00000000000E+00 -0.00000000000E+00 -0.50000499739E+01  0.50000500000E+01  0.51100000000E-03 0.  1.
     100001    1    1    2    0    0  0.12044291475E-01 -0.18117246209E-01  0.51674880431E-02  0.50000500000E+01  0.50000000000E+01 0.  0.
     100001    1    1    2    0    0 -0.12044291475E-01  0.18117246209E-01 -0.51674880431E-02  0.50000500000E+01  0.50000000000E+01 0. -1.
</event>
<event>
 4    1  0.4919875E-001  0.5000050E+01  0.7818608E-02  0.2136455E+00
        -11   -1    0    0    0    0  0.00000000000E+00  0.00000000000E+00  0.50000499739E+01  0.50000500000E+01  0.51100000000E-03 0.  1.
         11   -1    0    0    0    0 -0.00000000000E+00 -0.00000000000E+00 -0.50000499739E+01  0.50000500000E+01  0.51100000000E-03 0. -1.
     100001    1    1    2    0    0 -0.66804358447E-02  0.83273470965E-02 -0.19647635157E-01  0.50000500000E+01  0.50000000000E+01 0. -1.
     100001    1    1    2    0    0  0.66804358447E-02 -0.83273470965E-02  0.19647635157E-01  0.50000500000E+01  0.50000000000E+01 0.  0.
</event>
<event>
 4    1  0.4919875E-001  0.5000050E+01  0.7818608E-02  0.2136455E+00
        -11   -1    0    0    0    0  0.00000000000E+00  0.00000000000E+00  0.50000499739E+01  0.50000500000E+01  0.51100000000E-03 0. -1.
         11   -1    0    0    0    0 -0.00000000000E+00 -0.00000000000E+00 -0.50000499739E+01  0.50000500000E+01  0.51100000000E-03 0.  1.
     100001    1    1    2    0    0 -0.11625621331E-01  0.11412071533E-01 -0.15317051021E-01  0.50000500000E+01  0.50000000000E+01 0.  1.
     100001    1    1    2    0    0  0.11625621331E-01 -0.11412071533E-01  0.15317051021E-01  0.50000500000E+01  0.50000000000E+01 0. -1.
</event>
<event>
 4    1  0.4919875E-001  0.5000050E+01  0.7818608E-02  0.2136455E+00
        -11   -1    0    0    0    0  0.00000000000E+00  0.00000000000E+00  0.50000499739E+01  0.50000500000E+01  0.51100000000E-03 0. -1.
         11   -1    0    0    0    0 -0.00000000000E+00 -0.00000000000E+00 -0.50000499739E+01  0.50000500000E+01  0.51100000000E-03 0.  1.
     100001    1    1    2    0    0 -0.12310745503E-01 -0.18572788982E-01  0.18707096475E-02  0.50000500000E+01  0.50000000000E+01 0.  0.
     100001    1    1    2    0    0  0.12310745503E-01  0.18572788982E-01 -0.18707096475E-02  0.50000500000E+01  0.50000000000E+01 0. -1.
</event>
<event>
 4    1  0.4919875E-001  0.5000050E+01  0.7818608E-02  0.2136455E+00
        -11   -1    0    0    0    0  0.00000000000E+00  0.00000000000E+00  0.50000499739E+01  0.50000500000E+01  0.51100000000E-03 0.  1.
         11   -1    0    0    0    0 -0.00000000000E+00 -0.00000000000E+00 -0.50000499739E+01  0.50000500000E+01  0.51100000000E-03 0. -1.
     100001    1    1    2    0    0 -0.14418066022E-01 -0.20801871850E-02  0.16964512768E-01  0.50000500000E+01  0.50000000000E+01 0.  1.
     100001    1    1    2    0    0  0.14418066022E-01  0.20801871850E-02 -0.16964512768E-01  0.50000500000E+01  0.50000000000E+01 0.  1.
</event>
<event>
 4    1  0.4919875E-001  0.5000050E+01  0.7818608E-02  0.2136455E+00
        -11   -1    0    0    0    0  0.00000000000E+00  0.00000000000E+00  0.50000499739E+01  0.50000500000E+01  0.51100000000E-03 0. -1.
         11   -1    0    0    0    0 -0.00000000000E+00 -0.00000000000E+00 -0.50000499739E+01  0.50000500000E+01  0.51100000000E-03 0.  1.
     100001    1    1    2    0    0 -0.16163115131E-01 -0.67711379851E-02 -0.13889128830E-01  0.50000500000E+01  0.50000000000E+01 0.  0.
     100001    1    1    2    0    0  0.16163115131E-01  0.67711379851E-02  0.13889128830E-01  0.50000500000E+01  0.50000000000E+01 0.  0.
</event>
<event>
 4    1  0.4919875E-001  0.5000050E+01  0.7818608E-02  0.2136455E+00
        -11   -1    0    0    0    0  0.00000000000E+00  0.00000000000E+00  0.50000499739E+01  0.50000500000E+01  0.51100000000E-03 0.  1.
         11   -1    0    0    0    0 -0.00000000000E+00 -0.00000000000E+00 -0.50000499739E+01  0.50000500000E+01  0.51100000000E-03 0. -1.
     100001    1    1    2    0    0  0.52612713341E-02 -0.81449056073E-02 -0.20148995920E-01  0.50000500000E+01  0.50000000000E+01 0.  0.
     100001    1    1    2    0    0 -0.52612713341E-02  0.81449056073E-02  0.20148995920E-01  0.50000500000E+01  0.50000000000E+01 0.  0.
</event>
<event>
 4    1  0.4919875E-001  0.5000050E+01  0.7818608E-02  0.2136455E+00
        -11   -1    0    0    0    0  0.00000000000E+00  0.00000000000E+00  0.50000499739E+01  0.50000500000E+01  0.51100000000E-03 0. -1.
         11   -1    0    0    0    0 -0.00000000000E+00 -0.00000000000E+00 -0.50000499739E+01  0.50000500000E+01  0.51100000000E-03 0.  1.
     100001    1    1    2    0    0 -0.16821793738E-01 -0.58360019415E-02  0.13526671312E-01  0.50000500000E+01  0.50000000000E+01 0. -1.
     100001    1    1    2    0    0  0.16821793738E-01  0.58360019415E-02 -0.13526671312E-01  0.50000500000E+01  0.50000000000E+01 0. -1.
</event>
<event>
 4    1  0.4919875E-001  0.5000050E+01  0.7818608E-02  0.2136455E+00
        -11   -1    0    0    0    0  0.00000000000E+00  0.00000000000E+00  0.50000499739E+01  0.50000500000E+01  0.51100000000E-03 0.  1.
         11   -1    0    0    0    0 -0.00000000000E+00 -0.00000000000E+00 -0.50000499739E+01  0.50000500000E+01  0.51100000000E-03 0. -1.
     100001    1    1    2    0    0 -0.11284364434E-01  0.17299745100E-01 -0.85664717815E-02  0.50000500000E+01  0.50000000000E+01 0.  1.
     100001    1    1    2    0    0  0.11284364434E-01 -0.17299745100E-01  0.85664717815E-02  0.50000500000E+01  0.50000000000E+01 0. -1.
</event>
<event>
 4    1  0.4919875E-001  0.5000050E+01  0.7818608E-02  0.2136455E+00
        -11   -1    0    0    0    0  0.00000000000E+00  0.00000000000E+00  0.50000499739E+01  0.50000500000E+01  0.51100000000E-03 0.  1.
         11   -1    0    0    0    0 -0.00000000000E+00 -0.00000000000E+00 -0.50000499739E+01  0.50000500000E+01  0.51100000000E-03 0. -1.
     100001    1    1    2    0    0 -0.83851736755E-02  0.90634876325E-02  0.18642546885E-01  0.50000500000E+01  0.50000000000E+01 0.  0.
     100001    1    1    2    0    0  0.83851736755E-02 -0.90634876325E-02 -0.18642546885E-01  0.50000500000E+01  0.50000000000E+01 0.  0.
</event>
<event>
 4    1  0.4919875E-001  0.5000050E+01  0.7818608E-02  0.2136455E+00
        -11   -1    0    0    0    0  0.00000000000E+00  0.00000000000E+00  0.50000499739E+01  0.50000500000E+01  0.51100000000E-03 0.  1.
         11   -1    0    0    0    0 -0.00000000000E+00 -0.00000000000E+00 -0.50000499739E+01  0.50000500000E+01  0.51100000000E-03 0. -1.
     100001    1    1    2    0    0  0.10925212697E-01  0.19038725974E-01 -0.42625275131E-02  0.50000500000E+01  0.50000000000E+01 0. -1.
     100001    1    1    2    0    0 -0.10925212697E-01 -0.19038725974E-01  0.42625275131E-02  0.50000500000E+01  0.50000000000E+01 0.  1.
</event>
<event>
 4    1  0.4919875E-001  0.5000050E+01  0.7818608E-02  0.2136455E+00
        -11   -1    0    0    0    0  0.00000000000E+00  0.00000000000E+00  0.50000499739E+01  0.50000500000E+01  0.51100000000E-03 0. -1.
         11   -1    0    0    0    0 -0.00000000000E+00 -0.00000000000E+00 -0.50000499739E+01  0.50000500000E+01  0.51100000000E-03 0.  1.
     100001    1    1    2    0    0  0.19948853441E-02  0.20073081936E-01  0.96485394772E-02  0.50000500000E+01  0.50000000000E+01 0. -1.
     100001    1    1    2    0    0 -0.19948853441E-02 -0.20073081936E-01 -0.96485394772E-02  0.50000500000E+01  0.50000000000E+01 0.  1.
</event>
<event>
 4    1  0.4919875E-001  0.5000050E+01  0.7818608E-02  0.2136455E+00
        -11   -1    0    0    0    0  0.00000000000E+00  0.00000000000E+00  0.50000499739E+01  0.50000500000E+01  0.51100000000E-03 0.  1.
         11   -1    0    0    0    0 -0.00000000000E+00 -0.00000000000E+00 -0.50000499739E+01  0.50000500000E+01  0.51100000000E-03 0. -1.
     100001    1    1    2    0    0 -0.20346437077E-01 -0.44280042826E-02 -0.81497102006E-02  0.50000500000E+01  0.50000000000E+01 0. -1.
     100001    1    1    2    0    0  0.20346437077E-01  0.44280042826E-02  0.81497102006E-02  0.50000500000E+01  0.50000000000E+01 0.  0.
</event>
<event>
 4    1  0.4919875E-001  0.5000050E+01  0.7818608E-02  0.2136455E+00
        -11   -1    0    0    0    0  0.00000000000E+00  0.00000000000E+00  0.50000499739E+01  0.50000500000E+01  0.51100000000E-03 0. -1.
         11   -1    0    0    0    0 -0.00000000000E+00 -0.00000000000E+00 -0.50000499739E+01  0.50000500000E+01  0.51100000000E-03 0.  1.
     100001    1    1    2    0    0  0.20290261782E-01 -0.37237717953E-02  0.86279372070E-02  0.50000500000E+01  0.50000000000E+01 0.  1.
     100001    1    1    2    0    0 -0.20290261782E-01  0.37237717953E-02 -0.86279372070E-02  0.50000500000E+01  0.50000000000E+01 0.  0.
</event>
<event>
 4    1  0.4919875E-001  0.5000050E+01  0.7818608E-02  0.2136455E+00
        -11   -1    0    0    0    0  0.00000000000E+00  0.00000000000E+00  0.50000499739E+01  0.50000500000E+01  0.51100000000E-03 0.  1.
         11   -1    0    0    0    0 -0.00000000000E+00 -0.00000000000E+00 -0.50000499739E+01  0.50000500000E+01  0.51100000000E-03 0. -1.
     100001    1    1    2    0    0 -0.15042799718E-01 -0.19495909437E-02  0.16429113543E-01  0.50000500000E+01  0.50000000000E+01 0.  1.
     100001    1    1    2    0    0  0.15042799718E-01  0.19495909437E-02 -0.16429113543E-01  0.50000500000E+01  0.50000000000E+01 0. -1.
</event>
<event>
 4    1  0.4919875E-001  0.5000050E+01  0.7818608E-02  0.2136455E+00
        -11   -1    0    0    0    0  0.00000000000E+00  0.00000000000E+00  0.50000499739E+01  0.50000500000E+01  0.51100000000E-03 0.  1.
         11   -1    0    0    0    0 -0.00000000000E+00 -0.00000000000E+00 -0.50000499739E+01  0.50000500000E+01  0.51100000000E-03 0. -1.
     100001    1    1    2    0    0 -0.16142280229E-01 -0.78626616652E-02 -0.13326959163E-01  0.50000500000E+01  0.50000000000E+01 0. -1.
     100001    1    1    2    0    0  0.16142280229E-01  0.78626616652E-02  0.13326959163E-01  0.50000500000E+01  0.50000000000E+01 0.  1.
</event>
<event>
 4    1  0.4919875E-001  0.5000050E+01  0.7818608E-02  0.2136455E+00
        -11   -1    0    0    0    0  0.00000000000E+00  0.00000000000E+00  0.50000499739E+01  0.50000500000E+01  0.51100000000E-03 0. -1.
         11   -1    0    0    0    0 -0.00000000000E+00 -0.00000000000E+00 -0.50000499739E+01  0.50000500000E+01  0.51100000000E-03 0.  1.
     100001    1    1    2    0    0  0.23426869754E-02 -0.19826348984E-01  0.10071256312E-01  0.50000500000E+01  0.50000000000E+01 0.  1.
     100001    1    1    2    0    0 -0.23426869754E-02  0.19826348984E-01 -0.10071256312E-01  0.50000500000E+01  0.50000000000E+01 0.  0.
</event>
<event>
 4    1  0.4919875E-001  0.5000050E+01  0.7818608E-02  0.2136455E+00
        -11   -1    0    0    0    0  0.00000000000E+00  0.00000000000E+00  0.50000499739E+01  0.50000500000E+01  0.51100000000E-03 0.  1.
         11   -1    0    0    0    0 -0.00000000000E+00 -0.00000000000E+00 -0.50000499739E+01  0.50000500000E+01  0.51100000000E-03 0. -1.
     100001    1    1    2    0    0  0.19571586356E-01  0.62012012905E-02  0.88600570012E-02  0.50000500000E+01  0.50000000000E+01 0. -1.
     100001    1    1    2    0    0 -0.19571586356E-01 -0.62012012905E-02 -0.88600570012E-02  0.50000500000E+01  0.50000000000E+01 0.  0.
</event>
<event>
 4    1  0.4919875E-001  0.5000050E+01  0.7818608E-02  0.2136455E+00
        -11   -1    0    0    0    0  0.00000000000E+00  0.00000000000E+00  0.50000499739E+01  0.50000500000E+01  0.51100000000E-03 0.  1.
         11   -1    0    0    0    0 -0.00000000000E+00 -0.00000000000E+00 -0.50000499739E+01  0.50000500000E+01  0.51100000000E-03 0. -1.
     100001    1    1    2    0    0  0.12484654725E-02  0.22135318975E-01  0.29105820420E-02  0.50000500000E+01  0.50000000000E+01 0.  1.
     100001    1    1    2    0    0 -0.12484654725E-02 -0.22135318975E-01 -0.29105820420E-02  0.50000500000E+01  0.50000000000E+01 0. -1.
</event>
<event>
 4    1  0.4919875E-001  0.5000050E+01  0.7818608E-02  0.2136455E+00
        -11   -1    0    0    0    0  0.00000000000E+00  0.00000000000E+00  0.50000499739E+01  0.50000500000E+01  0.51100000000E-03 0. -1.
         11   -1    0    0    0    0 -0.00000000000E+00 -0.00000000000E+00 -0.50000499739E+01  0.50000500000E+01  0.51100000000E-03 0.  1.
     100001    1    1    2    0    0 -0.52814993247E-02  0.16772351501E-01  0.13812910265E-01  0.50000500000E+01  0.50000000000E+01 0.  0.
     100001    1    1    2    0    0  0.52814993247E-02 -0.16772351501E-01 -0.13812910265E-01  0.50000500000E+01  0.50000000000E+01 0.  1.
</event>
<event>
 4    1  0.4919875E-001  0.5000050E+01  0.7818608E-02  0.2136455E+00
        -11   -1    0    0    0    0  0.00000000000E+00  0.00000000000E+00  0.50000499739E+01  0.50000500000E+01  0.51100000000E-03 0.  1.
         11   -1    0    0    0    0 -0.00000000000E+00 -0.00000000000E+00 -0.50000499739E+01  0.50000500000E+01  0.51100000000E-03 0. -1.
     100001    1    1    2    0    0 -0.18249320059E-01 -0.48020576821E-02 -0.11996043489E-01  0.50000500000E+01  0.50000000000E+01 0. -1.
     100001    1    1    2    0    0  0.18249320059E-01  0.48020576821E-02  0.11996043489E-01  0.50000500000E+01  0.50000000000E+01 0.  1.
</event>
<event>
 4    1  0.4919875E-001  0.5000050E+01  0.7818608E-02  0.2136455E+00
        -11   -1    0    0    0    0  0.00000000000E+00  0.00000000000E+00  0.50000499739E+01  0.50000500000E+01  0.51100000000E-03 0.  1.
         11   -1    0    0    0    0 -0.00000000000E+00 -0.00000000000E+00 -0.50000499739E+01  0.50000500000E+01  0.51100000000E-03 0. -1.
     100001    1    1    2    0    0 -0.92007607951E-04 -0.86703347103E-02 -0.20611145786E-01  0.50000500000E+01  0.50000000000E+01 0. -1.
     100001    1    1    2    0    0  0.92007607951E-04  0.86703347103E-02  0.20611145786E-01  0.50000500000E+01  0.50000000000E+01 0.  1.
</event>
<event>
 4    1  0.4919875E-001  0.5000050E+01  0.7818608E-02  0.2136455E+00
        -11   -1    0    0    0    0  0.00000000000E+00  0.00000000000E+00  0.50000499739E+01  0.50000500000E+01  0.51100000000E-03 0. -1.
         11   -1    0    0    0    0 -0.00000000000E+00 -0.00000000000E+00 -0.50000499739E+01  0.50000500000E+01  0.51100000000E-03 0.  1.
     100001    1    1    2    0    0  0.20055406312E-02 -0.15999814450E-01 -0.15491489416E-01  0.50000500000E+01  0.50000000000E+01 0. -1.
     100001    1    1    2    0    0 -0.20055406312E-02  0.15999814450E-01  0.15491489416E-01  0.50000500000E+01  0.50000000000E+01 0.  1.
</event>
<event>
 4    1  0.4919875E-001  0.5000050E+01  0.7818608E-02  0.2136455E+00
        -11   -1    0    0    0    0  0.00000000000E+00  0.00000000000E+00  0.50000499739E+01  0.50000500000E+01  0.51100000000E-03 0.  1.
         11   -1    0    0    0    0 -0.00000000000E+00 -0.00000000000E+00 -0.50000499739E+01  0.50000500000E+01  0.51100000000E-03 0. -1.
     100001    1    1    2    0    0  0.18776121573E-02 -0.17792539794E-01  0.13412777501E-01  0.50000500000E+01  0.50000000000E+01 0.  1.
     100001    1    1    2    0    0 -0.18776121573E-02  0.17792539794E-01 -0.13412777501E-01  0.50000500000E+01  0.50000000000E+01 0. -1.
</event>
<event>
 4    1  0.4919875E-001  0.5000050E+01  0.7818608E-02  0.2136455E+00
        -11   -1    0    0    0    0  0.00000000000E+00  0.00000000000E+00  0.50000499739E+01  0.50000500000E+01  0.51100000000E-03 0. -1.
         11   -1    0    0    0    0 -0.00000000000E+00 -0.00000000000E+00 -0.50000499739E+01  0.50000500000E+01  0.51100000000E-03 0.  1.
     100001    1    1    2    0    0 -0.13976647083E-02 -0.22311373370E-01 -0.50164900006E-03  0.50000500000E+01  0.50000000000E+01 0. -1.
     100001    1    1    2    0    0  0.13976647083E-02  0.22311373370E-01  0.50164900006E-03  0.50000500000E+01  0.50000000000E+01 0.  1.
</event>
<event>
 4    1  0.4919875E-001  0.5000050E+01  0.7818608E-02  0.2136455E+00
        -11   -1    0    0    0    0  0.00000000000E+00  0.00000000000E+00  0.50000499739E+01  0.50000500000E+01  0.51100000000E-03 0. -1.
         11   -1    0    0    0    0 -0.00000000000E+00 -0.00000000000E+00 -0.50000499739E+01  0.50000500000E+01  0.51100000000E-03 0.  1.
     100001    1    1    2    0    0 -0.93965803507E-02 -0.25149924536E-02  0.20134090262E-01  0.50000500000E+01  0.50000000000E+01 0.  0.
     100001    1    1    2    0    0  0.93965803507E-02  0.25149924536E-02 -0.20134090262E-01  0.50000500000E+01  0.50000000000E+01 0.  0.
</event>
<event>
 4    1  0.4919875E-001  0.5000050E+01  0.7818608E-02  0.2136455E+00
        -11   -1    0    0    0    0  0.00000000000E+00  0.00000000000E+00  0.50000499739E+01  0.50000500000E+01  0.51100000000E-03 0. -1.
         11   -1    0    0    0    0 -0.00000000000E+00 -0.00000000000E+00 -0.50000499739E+01  0.50000500000E+01  0.51100000000E-03 0.  1.
     100001    1    1    2    0    0 -0.16416443389E-01 -0.14385584688E-01 -0.48536418950E-02  0.50000500000E+01  0.50000000000E+01 0.  0.
     100001    1    1    2    0    0  0.16416443389E-01  0.14385584688E-01  0.48536418950E-02  0.50000500000E+01  0.50000000000E+01 0. -1.
</event>
<event>
 4    1  0.4919875E-001  0.5000050E+01  0.7818608E-02  0.2136455E+00
        -11   -1    0    0    0    0  0.00000000000E+00  0.00000000000E+00  0.50000499739E+01  0.50000500000E+01  0.51100000000E-03 0.  1.
         11   -1    0    0    0    0 -0.00000000000E+00 -0.00000000000E+00 -0.50000499739E+01  0.50000500000E+01  0.51100000000E-03 0. -1.
     100001    1    1    2    0    0  0.18480622294E-01  0.78038640701E-02 -0.98776923005E-02  0.50000500000E+01  0.50000000000E+01 0.  1.
     100001    1    1    2    0    0 -0.18480622294E-01 -0.78038640701E-02  0.98776923005E-02  0.50000500000E+01  0.50000000000E+01 0.  1.
</event>
<event>
 4    1  0.4919875E-001  0.5000050E+01  0.7818608E-02  0.2136455E+00
        -11   -1    0    0    0    0  0.00000000000E+00  0.00000000000E+00  0.50000499739E+01  0.50000500000E+01  0.51100000000E-03 0.  1.
         11   -1    0    0    0    0 -0.00000000000E+00 -0.00000000000E+00 -0.50000499739E+01  0.50000500000E+01  0.51100000000E-03 0. -1.
     100001    1    1    2    0    0  0.19691295237E-01 -0.11806450129E-02  0.10529077322E-01  0.50000500000E+01  0.50000000000E+01 0.  1.
     100001    1    1    2    0    0 -0.19691295237E-01  0.11806450129E-02 -0.10529077322E-01  0.50000500000E+01  0.50000000000E+01 0. -1.
</event>
<event>
 4    1  0.4919875E-001  0.5000050E+01  0.7818608E-02  0.2136455E+00
        -11   -1    0    0    0    0  0.00000000000E+00  0.00000000000E+00  0.50000499739E+01  0.50000500000E+01  0.51100000000E-03 0.  1.
         11   -1    0    0    0    0 -0.00000000000E+00 -0.00000000000E+00 -0.50000499739E+01  0.50000500000E+01  0.51100000000E-03 0. -1.
     100001    1    1    2    0    0  0.29467919065E-02 -0.21203627353E-01 -0.64594972352E-02  0.50000500000E+01  0.50000000000E+01 0.  0.
     100001    1    1    2    0    0 -0.29467919065E-02  0.21203627353E-01  0.64594972352E-02  0.50000500000E+01  0.50000000000E+01 0.  0.
</event>
<event>
 4    1  0.4919875E-001  0.5000050E+01  0.7818608E-02  0.2136455E+00
        -11   -1    0    0    0    0  0.00000000000E+00  0.00000000000E+00  0.50000499739E+01  0.50000500000E+01  0.51100000000E-03 0. -1.
         11   -1    0    0    0    0 -0.00000000000E+00 -0.00000000000E+00 -0.50000499739E+01  0.50000500000E+01  0.51100000000E-03 0.  1.
     100001    1    1    2    0    0 -0.61802003178E-02 -0.51636907203E-02 -0.20860103599E-01  0.50000500000E+01  0.50000000000E+01 0.  1.
     100001    1    1    2    0    0  0.61802003178E-02  0.51636907203E-02  0.20860103599E-01  0.50000500000E+01  0.50000000000E+01 0.  0.
</event>
<event>
 4    1  0.4919875E-001  0.5000050E+01  0.7818608E-02  0.2136455E+00
        -11   -1    0    0    0    0  0.00000000000E+00  0.00000000000E+00  0.50000499739E+01  0.50000500000E+01  0.51100000000E-03 0. -1.
         11   -1    0    0    0    0 -0.00000000000E+00 -0.00000000000E+00 -0.50000499739E+01  0.50000500000E+01  0.51100000000E-03 0.  1.
     100001    1    1    2    0    0  0.22280170434E-01 -0.18541679244E-02 -0.39820438823E-03  0.50000500000E+01  0.50000000000E+01 0. -1.
     100001    1    1    2    0    0 -0.22280170434E-01  0.18541679244E-02  0.39820438823E-03  0.50000500000E+01  0.50000000000E+01 0.  1.
</event>
<event>
 4    1  0.4919875E-001  0.5000050E+01  0.7818608E-02  0.2136455E+00
        -11   -1    0    0    0    0  0.00000000000E+00  0.00000000000E+00  0.50000499739E+01  0.50000500000E+01  0.51100000000E-03 0. -1.
         11   -1    0    0    0    0 -0.00000000000E+00 -0.00000000000E+00 -0.50000499739E+01  0.50000500000E+01  0.51100000000E-03 0.  1.
     100001    1    1    2    0    0  0.15622892651E-01  0.11453819675E-01 -0.11168605108E-01  0.50000500000E+01  0.50000000000E+01 0.  1.
     100001    1    1    2    0    0 -0.15622892651E-01 -0.11453819675E-01  0.11168605108E-01  0.50000500000E+01  0.50000000000E+01 0. -1.
</event>
<event>
 4    1  0.4919875E-001  0.5000050E+01  0.7818608E-02  0.2136455E+00
        -11   -1    0    0    0    0  0.00000000000E+00  0.00000000000E+00  0.50000499739E+01  0.50000500000E+01  0.51100000000E-03 0.  1.
         11   -1    0    0    0    0 -0.00000000000E+00 -0.00000000000E+00 -0.50000499739E+01  0.50000500000E+01  0.51100000000E-03 0. -1.
     100001    1    1    2    0    0  0.20814256785E-01 -0.18872974038E-02  0.79503033276E-02  0.50000500000E+01  0.50000000000E+01 0.  1.
     100001    1    1    2    0    0 -0.20814256785E-01  0.18872974038E-02 -0.79503033276E-02  0.50000500000E+01  0.50000000000E+01 0. -1.
</event>
<event>
 4    1  0.4919875E-001  0.5000050E+01  0.7818608E-02  0.2136455E+00
        -11   -1    0    0    0    0  0.00000000000E+00  0.00000000000E+00  0.50000499739E+01  0.50000500000E+01  0.51100000000E-03 0. -1.
         11   -1    0    0    0    0 -0.00000000000E+00 -0.00000000000E+00 -0.50000499739E+01  0.50000500000E+01  0.51100000000E-03 0.  1.
     100001    1    1    2    0    0 -0.11888248995E-01 -0.12053553152E-01  0.14607665530E-01  0.50000500000E+01  0.50000000000E+01 0.  1.
     100001    1    1    2    0    0  0.11888248995E-01  0.12053553152E-01 -0.14607665530E-01  0.50000500000E+01  0.50000000000E+01 0.  0.
</event>
<event>
 4    1  0.4919875E-001  0.5000050E+01  0.7818608E-02  0.2136455E+00
        -11   -1    0    0    0    0  0.00000000000E+00  0.00000000000E+00  0.50000499739E+01  0.50000500000E+01  0.51100000000E-03 0.  1.
         11   -1    0    0    0    0 -0.00000000000E+00 -0.00000000000E+00 -0.50000499739E+01  0.50000500000E+01  0.51100000000E-03 0. -1.
     100001    1    1    2    0    0 -0.16373366755E-01 -0.81596017843E-02 -0.12858314813E-01  0.50000500000E+01  0.50000000000E+01 0.  1.
     100001    1    1    2    0    0  0.16373366755E-01  0.81596017843E-02  0.12858314813E-01  0.50000500000E+01  0.50000000000E+01 0. -1.
</event>
<event>
 4    1  0.4919875E-001  0.5000050E+01  0.7818608E-02  0.2136455E+00
        -11   -1    0    0    0    0  0.00000000000E+00  0.00000000000E+00  0.50000499739E+01  0.50000500000E+01  0.51100000000E-03 0.  1.
         11   -1    0    0    0    0 -0.00000000000E+00 -0.00000000000E+00 -0.50000499739E+01  0.50000500000E+01  0.51100000000E-03 0. -1.
     100001    1    1    2    0    0  0.40798290435E-02  0.20673113731E-01  0.74819692343E-02  0.50000500000E+01  0.50000000000E+01 0. -1.
     100001    1    1    2    0    0 -0.40798290435E-02 -0.20673113731E-01 -0.74819692343E-02  0.50000500000E+01  0.50000000000E+01 0.  0.
</event>
<event>
 4    1  0.4919875E-001  0.5000050E+01  0.7818608E-02  0.2136455E+00
        -11   -1    0    0    0    0  0.00000000000E+00  0.00000000000E+00  0.50000499739E+01  0.50000500000E+01  0.51100000000E-03 0.  1.
         11   -1    0    0    0    0 -0.00000000000E+00 -0.00000000000E+00 -0.50000499739E+01  0.50000500000E+01  0.51100000000E-03 0. -1.
     100001    1    1    2    0    0 -0.18931037648E-01  0.29022215309E-02  0.11541032179E-01  0.50000500000E+01  0.50000000000E+01 0.  1.
     100001    1    1    2    0    0  0.18931037648E-01 -0.29022215309E-02 -0.11541032179E-01  0.50000500000E+01  0.50000000000E+01 0. -1.
</event>
<event>
 4    1  0.4919875E-001  0.5000050E+01  0.7818608E-02  0.2136455E+00
        -11   -1    0    0    0    0  0.00000000000E+00  0.00000000000E+00  0.50000499739E+01  0.50000500000E+01  0.51100000000E-03 0.  1.
         11   -1    0    0    0    0 -0.00000000000E+00 -0.00000000000E+00 -0.50000499739E+01  0.50000500000E+01  0.51100000000E-03 0. -1.
     100001    1    1    2    0    0 -0.82007190574E-02 -0.18826468752E-01  0.88495639028E-02  0.50000500000E+01  0.50000000000E+01 0. -1.
     100001    1    1    2    0    0  0.82007190574E-02  0.18826468752E-01 -0.88495639028E-02  0.50000500000E+01  0.50000000000E+01 0.  0.
</event>
<event>
 4    1  0.4919875E-001  0.5000050E+01  0.7818608E-02  0.2136455E+00
        -11   -1    0    0    0    0  0.00000000000E+00  0.00000000000E+00  0.50000499739E+01  0.50000500000E+01  0.51100000000E-03 0. -1.
         11   -1    0    0    0    0 -0.00000000000E+00 -0.00000000000E+00 -0.50000499739E+01  0.50000500000E+01  0.51100000000E-03 0.  1.
     100001    1    1    2    0    0  0.14168529619E-01  0.15585560532E-01 -0.75063687185E-02  0.50000500000E+01  0.50000000000E+01 0.  1.
     100001    1    1    2    0    0 -0.14168529619E-01 -0.15585560532E-01  0.75063687185E-02  0.50000500000E+01  0.50000000000E+01 0.  1.
</event>
<event>
 4    1  0.4919875E-001  0.5000050E+01  0.7818608E-02  0.2136455E+00
        -11   -1    0    0    0    0  0.00000000000E+00  0.00000000000E+00  0.50000499739E+01  0.50000500000E+01  0.51100000000E-03 0.  1.
         11   -1    0    0    0    0 -0.00000000000E+00 -0.00000000000E+00 -0.50000499739E+01  0.50000500000E+01  0.51100000000E-03 0. -1.
     100001    1    1    2    0    0  0.20216836325E-01  0.94099751798E-02  0.16536009539E-02  0.50000500000E+01  0.50000000000E+01 0.  1.
     100001    1    1    2    0    0 -0.20216836325E-01 -0.94099751798E-02 -0.16536009539E-02  0.50000500000E+01  0.50000000000E+01 0. -1.
</event>
<event>
 4    1  0.4919875E-001  0.5000050E+01  0.7818608E-02  0.2136455E+00
        -11   -1    0    0    0    0  0.00000000000E+00  0.00000000000E+00  0.50000499739E+01  0.50000500000E+01  0.51100000000E-03 0. -1.
         11   -1    0    0    0    0 -0.00000000000E+00 -0.00000000000E+00 -0.50000499739E+01  0.50000500000E+01  0.51100000000E-03 0.  1.
     100001    1    1    2    0    0  0.60606633819E-03 -0.11644760194E-01 -0.19079694536E-01  0.50000500000E+01  0.50000000000E+01 0.  1.
     100001    1    1    2    0    0 -0.60606633819E-03  0.11644760194E-01  0.19079694536E-01  0.50000500000E+01  0.50000000000E+01 0. -1.
</event>
<event>
 4    1  0.4919875E-001  0.5000050E+01  0.7818608E-02  0.2136455E+00
        -11   -1    0    0    0    0  0.00000000000E+00  0.00000000000E+00  0.50000499739E+01  0.50000500000E+01  0.51100000000E-03 0. -1.
         11   -1    0    0    0    0 -0.00000000000E+00 -0.00000000000E+00 -0.50000499739E+01  0.50000500000E+01  0.51100000000E-03 0.  1.
     100001    1    1    2    0    0  0.14581846686E-01  0.13764339618E-01 -0.98952110687E-02  0.50000500000E+01  0.50000000000E+01 0.  1.
     100001    1    1    2    0    0 -0.14581846686E-01 -0.13764339618E-01  0.98952110687E-02  0.50000500000E+01  0.50000000000E+01 0. -1.
</event>
<event>
 4    1  0.4919875E-001  0.5000050E+01  0.7818608E-02  0.2136455E+00
        -11   -1    0    0    0    0  0.00000000000E+00  0.00000000000E+00  0.50000499739E+01  0.50000500000E+01  0.51100000000E-03 0. -1.
         11   -1    0    0    0    0 -0.00000000000E+00 -0.00000000000E+00 -0.50000499739E+01  0.50000500000E+01  0.51100000000E-03 0.  1.
     100001    1    1    2    0    0  0.17548801138E-01 -0.13848585992E-01  0.50866949830E-03  0.50000500000E+01  0.50000000000E+01 0.  0.
     100001    1    1    2    0    0 -0.17548801138E-01  0.13848585992E-01 -0.50866949830E-03  0.50000500000E+01  0.50000000000E+01 0. -1.
</event>
<event>
 4    1  0.4919875E-001  0.5000050E+01  0.7818608E-02  0.2136455E+00
        -11   -1    0    0    0    0  0.00000000000E+00  0.00000000000E+00  0.50000499739E+01  0.50000500000E+01  0.51100000000E-03 0. -1.
         11   -1    0    0    0    0 -0.00000000000E+00 -0.00000000000E+00 -0.50000499739E+01  0.50000500000E+01  0.51100000000E-03 0.  1.
     100001    1    1    2    0    0 -0.11973425210E-01  0.18447123399E-01 -0.40426757277E-02  0.50000500000E+01  0.50000000000E+01 0.  1.
     100001    1    1    2    0    0  0.11973425210E-01 -0.18447123399E-01  0.40426757277E-02  0.50000500000E+01  0.50000000000E+01 0.  0.
</event>
<event>
 4    1  0.4919875E-001  0.5000050E+01  0.7818608E-02  0.2136455E+00
        -11   -1    0    0    0    0  0.00000000000E+00  0.00000000000E+00  0.50000499739E+01  0.50000500000E+01  0.51100000000E-03 0.  1.
         11   -1    0    0    0    0 -0.00000000000E+00 -0.00000000000E+00 -0.50000499739E+01  0.50000500000E+01  0.51100000000E-03 0. -1.
     100001    1    1    2    0    0  0.81101683000E-02 -0.10059817584E-02 -0.20813833641E-01  0.50000500000E+01  0.50000000000E+01 0.  0.
     100001    1    1    2    0    0 -0.81101683000E-02  0.10059817584E-02  0.20813833641E-01  0.50000500000E+01  0.50000000000E+01 0.  1.
</event>
<event>
 4    1  0.4919875E-001  0.5000050E+01  0.7818608E-02  0.2136455E+00
        -11   -1    0    0    0    0  0.00000000000E+00  0.00000000000E+00  0.50000499739E+01  0.50000500000E+01  0.51100000000E-03 0.  1.
         11   -1    0    0    0    0 -0.00000000000E+00 -0.00000000000E+00 -0.50000499739E+01  0.50000500000E+01  0.51100000000E-03 0. -1.
     100001    1    1    2    0    0  0.20323496619E-01 -0.14236853380E-02  0.92158073558E-02  0.50000500000E+01  0.50000000000E+01 0.  0.
     100001    1    1    2    0    0 -0.20323496619E-01  0.14236853380E-02 -0.92158073558E-02  0.50000500000E+01  0.50000000000E+01 0.  1.
</event>
<event>
 4    1  0.4919875E-001  0.5000050E+01  0.7818608E-02  0.2136455E+00
        -11   -1    0    0    0    0  0.00000000000E+00  0.00000000000E+00  0.50000499739E+01  0.50000500000E+01  0.51100000000E-03 0.  1.
         11   -1    0    0    0    0 -0.00000000000E+00 -0.00000000000E+00 -0.50000499739E+01  0.50000500000E+01  0.51100000000E-03 0. -1.
     100001    1    1    2    0    0 -0.14369606657E-01  0.11151109728E-01 -0.13006523607E-01  0.50000500000E+01  0.50000000000E+01 0. -1.
     100001    1    1    2    0    0  0.14369606657E-01 -0.11151109728E-01  0.13006523607E-01  0.50000500000E+01  0.50000000000E+01 0.  1.
</event>
<event>
 4    1  0.4919875E-001  0.5000050E+01  0.7818608E-02  0.2136455E+00
        -11   -1    0    0    0    0  0.00000000000E+00  0.00000000000E+00  0.50000499739E+01  0.50000500000E+01  0.51100000000E-03 0. -1.
         11   -1    0    0    0    0 -0.00000000000E+00 -0.00000000000E+00 -0.50000499739E+01  0.50000500000E+01  0.51100000000E-03 0.  1.
     100001    1    1    2    0    0  0.25451612796E-02 -0.60473679070E-02  0.21376482298E-01  0.50000500000E+01  0.50000000000E+01 0. -1.
     100001    1    1    2    0    0 -0.25451612796E-02  0.60473679070E-02 -0.21376482298E-01  0.50000500000E+01  0.50000000000E+01 0.  0.
</event>
<event>
 4    1  0.4919875E-001  0.5000050E+01  0.7818608E-02  0.2136455E+00
        -11   -1    0    0    0    0  0.00000000000E+00  0.00000000000E+00  0.50000499739E+01  0.50000500000E+01  0.51100000000E-03 0.  1.
         11   -1    0    0    0    0 -0.00000000000E+00 -0.00000000000E+00 -0.50000499739E+01  0.50000500000E+01  0.51100000000E-03 0. -1.
     100001    1    1    2    0    0 -0.45293480546E-02  0.12692613325E-01 -0.17843348149E-01  0.50000500000E+01  0.50000000000E+01 0.  0.
     100001    1    1    2    0    0  0.45293480546E-02 -0.12692613325E-01  0.17843348149E-01  0.50000500000E+01  0.50000000000E+01 0.  0.
</event>
<event>
 4    1  0.4919875E-001  0.5000050E+01  0.7818608E-02  0.2136455E+00
        -11   -1    0    0    0    0  0.00000000000E+00  0.00000000000E+00  0.50000499739E+01  0.50000500000E+01  0.51100000000E-03 0. -1.
         11   -1    0    0    0    0 -0.00000000000E+00 -0.00000000000E+00 -0.50000499739E+01  0.50000500000E+01  0.51100000000E-03 0.  1.
     100001    1    1    2    0    0 -0.12900578425E-01  0.68574592431E-02  0.16927871367E-01  0.50000500000E+01  0.50000000000E+01 0. -1.
     100001    1    1    2    0    0  0.12900578425E-01 -0.68574592431E-02 -0.16927871367E-01  0.50000500000E+01  0.50000000000E+01 0.  0.
</event>
<event>
 4    1  0.4919875E-001  0.5000050E+01  0.7818608E-02  0.2136455E+00
        -11   -1    0    0    0    0  0.00000000000E+00  0.00000000000E+00  0.50000499739E+01  0.50000500000E+01  0.51100000000E-03 0. -1.
         11   -1    0    0    0    0 -0.00000000000E+00 -0.00000000000E+00 -0.50000499739E+01  0.50000500000E+01  0.51100000000E-03 0.  1.
     100001    1    1    2    0    0 -0.18050852630E-01 -0.17514101097E-02  0.13080587982E-01  0.50000500000E+01  0.50000000000E+01 0. -1.
     100001    1    1    2    0    0  0.18050852630E-01  0.17514101097E-02 -0.13080587982E-01  0.50000500000E+01  0.50000000000E+01 0.  1.
</event>
<event>
 4    1  0.4919875E-001  0.5000050E+01  0.7818608E-02  0.2136455E+00
        -11   -1    0    0    0    0  0.00000000000E+00  0.00000000000E+00  0.50000499739E+01  0.50000500000E+01  0.51100000000E-03 0.  1.
         11   -1    0    0    0    0 -0.00000000000E+00 -0.00000000000E+00 -0.50000499739E+01  0.50000500000E+01  0.51100000000E-03 0. -1.
     100001    1    1    2    0    0 -0.21249114014E-01  0.27866363582E-02  0.63806199883E-02  0.50000500000E+01  0.50000000000E+01 0.  1.
     100001    1    1    2    0    0  0.21249114014E-01 -0.27866363582E-02 -0.63806199883E-02  0.50000500000E+01  0.50000000000E+01 0. -1.
</event>
<event>
 4    1  0.4919875E-001  0.5000050E+01  0.7818608E-02  0.2136455E+00
        -11   -1    0    0    0    0  0.00000000000E+00  0.00000000000E+00  0.50000499739E+01  0.50000500000E+01  0.51100000000E-03 0. -1.
         11   -1    0    0    0    0 -0.00000000000E+00 -0.00000000000E+00 -0.50000499739E+01  0.50000500000E+01  0.51100000000E-03 0.  1.
     100001    1    1    2    0    0  0.18164420411E-01 -0.52373328706E-02  0.11942641062E-01  0.50000500000E+01  0.50000000000E+01 0. -1.
     100001    1    1    2    0    0 -0.18164420411E-01  0.52373328706E-02 -0.11942641062E-01  0.50000500000E+01  0.50000000000E+01 0. -1.
</event>
<event>
 4    1  0.4919875E-001  0.5000050E+01  0.7818608E-02  0.2136455E+00
        -11   -1    0    0    0    0  0.00000000000E+00  0.00000000000E+00  0.50000499739E+01  0.50000500000E+01  0.51100000000E-03 0.  1.
         11   -1    0    0    0    0 -0.00000000000E+00 -0.00000000000E+00 -0.50000499739E+01  0.50000500000E+01  0.51100000000E-03 0. -1.
     100001    1    1    2    0    0 -0.10264288809E-02  0.56295479571E-02 -0.21616131327E-01  0.50000500000E+01  0.50000000000E+01 0.  0.
     100001    1    1    2    0    0  0.10264288809E-02 -0.56295479571E-02  0.21616131327E-01  0.50000500000E+01  0.50000000000E+01 0.  1.
</event>
<event>
 4    1  0.4919875E-001  0.5000050E+01  0.7818608E-02  0.2136455E+00
        -11   -1    0    0    0    0  0.00000000000E+00  0.00000000000E+00  0.50000499739E+01  0.50000500000E+01  0.51100000000E-03 0.  1.
         11   -1    0    0    0    0 -0.00000000000E+00 -0.00000000000E+00 -0.50000499739E+01  0.50000500000E+01  0.51100000000E-03 0. -1.
     100001    1    1    2    0    0  0.11925551864E-01 -0.16223268549E-01 -0.97257015336E-02  0.50000500000E+01  0.50000000000E+01 0.  1.
     100001    1    1    2    0    0 -0.11925551864E-01  0.16223268549E-01  0.97257015336E-02  0.50000500000E+01  0.50000000000E+01 0. -1.
</event>
<event>
 4    1  0.4919875E-001  0.5000050E+01  0.7818608E-02  0.2136455E+00
        -11   -1    0    0    0    0  0.00000000000E+00  0.00000000000E+00  0.50000499739E+01  0.50000500000E+01  0.51100000000E-03 0. -1.
         11   -1    0    0    0    0 -0.00000000000E+00 -0.00000000000E+00 -0.50000499739E+01  0.50000500000E+01  0.51100000000E-03 0.  1.
     100001    1    1    2    0    0  0.62656820089E-02  0.12395363170E-02 -0.21429122210E-01  0.50000500000E+01  0.50000000000E+01 0.  1.
     100001    1    1    2    0    0 -0.62656820089E-02 -0.12395363170E-02  0.21429122210E-01  0.50000500000E+01  0.50000000000E+01 0. -1.
</event>
<event>
 4    1  0.4919875E-001  0.5000050E+01  0.7818608E-02  0.2136455E+00
        -11   -1    0    0    0    0  0.00000000000E+00  0.00000000000E+00  0.50000499739E+01  0.50000500000E+01  0.51100000000E-03 0. -1.
         11   -1    0    0    0    0 -0.00000000000E+00 -0.00000000000E+00 -0.50000499739E+01  0.50000500000E+01  0.51100000000E-03 0.  1.
     100001    1    1    2    0    0  0.15772039034E-01 -0.19391917264E-02 -0.15731650268E-01  0.50000500000E+01  0.50000000000E+01 0.  0.
     100001    1    1    2    0    0 -0.15772039034E-01  0.19391917264E-02  0.15731650268E-01  0.50000500000E+01  0.50000000000E+01 0.  1.
</event>
<event>
 4    1  0.4919875E-001  0.5000050E+01  0.7818608E-02  0.2136455E+00
        -11   -1    0    0    0    0  0.00000000000E+00  0.00000000000E+00  0.50000499739E+01  0.50000500000E+01  0.51100000000E-03 0.  1.
         11   -1    0    0    0    0 -0.00000000000E+00 -0.00000000000E+00 -0.50000499739E+01  0.50000500000E+01  0.51100000000E-03 0. -1.
     100001    1    1    2    0    0  0.20058805024E-01 -0.95476726997E-02 -0.25473097631E-02  0.50000500000E+01  0.50000000000E+01 0. -1.
     100001    1    1    2    0    0 -0.20058805024E-01  0.95476726997E-02  0.25473097631E-02  0.50000500000E+01  0.50000000000E+01 0.  1.
</event>
<event>
 4    1  0.4919875E-001  0.5000050E+01  0.7818608E-02  0.2136455E+00
        -11   -1    0    0    0    0  0.00000000000E+00  0.00000000000E+00  0.50000499739E+01  0.50000500000E+01  0.51100000000E-03 0. -1.
         11   -1    0    0    0    0 -0.00000000000E+00 -0.00000000000E+00 -0.50000499739E+01  0.50000500000E+01  0.51100000000E-03 0.  1.
     100001    1    1    2    0    0 -0.19833655326E-01 -0.81884096392E-02 -0.62911496552E-02  0.50000500000E+01  0.50000000000E+01 0.  1.
     100001    1    1    2    0    0  0.19833655326E-01  0.81884096392E-02  0.62911496552E-02  0.50000500000E+01  0.50000000000E+01 0. -1.
</event>
<event>
 4    1  0.4919875E-001  0.5000050E+01  0.7818608E-02  0.2136455E+00
        -11   -1    0    0    0    0  0.00000000000E+00  0.00000000000E+00  0.50000499739E+01  0.50000500000E+01  0.51100000000E-03 0.  1.
         11   -1    0    0    0    0 -0.00000000000E+00 -0.00000000000E+00 -0.50000499739E+01  0.50000500000E+01  0.51100000000E-03 0. -1.
     100001    1    1    2    0    0 -0.21216397193E-01 -0.67423523423E-02  0.20994463638E-02  0.50000500000E+01  0.50000000000E+01 0. -1.
     100001    1    1    2    0    0  0.21216397193E-01  0.67423523423E-02 -0.20994463638E-02  0.50000500000E+01  0.50000000000E+01 0.  1.
</event>
<event>
 4    1  0.4919875E-001  0.5000050E+01  0.7818608E-02  0.2136455E+00
        -11   -1    0    0    0    0  0.00000000000E+00  0.00000000000E+00  0.50000499739E+01  0.50000500000E+01  0.51100000000E-03 0. -1.
         11   -1    0    0    0    0 -0.00000000000E+00 -0.00000000000E+00 -0.50000499739E+01  0.50000500000E+01  0.51100000000E-03 0.  1.
     100001    1    1    2    0    0 -0.18890698355E-01 -0.87349051251E-02 -0.81759065629E-02  0.50000500000E+01  0.50000000000E+01 0.  0.
     100001    1    1    2    0    0  0.18890698355E-01  0.87349051251E-02  0.81759065629E-02  0.50000500000E+01  0.50000000000E+01 0.  1.
</event>
<event>
 4    1  0.4919875E-001  0.5000050E+01  0.7818608E-02  0.2136455E+00
        -11   -1    0    0    0    0  0.00000000000E+00  0.00000000000E+00  0.50000499739E+01  0.50000500000E+01  0.51100000000E-03 0. -1.
         11   -1    0    0    0    0 -0.00000000000E+00 -0.00000000000E+00 -0.50000499739E+01  0.50000500000E+01  0.51100000000E-03 0.  1.
     100001    1    1    2    0    0 -0.18923577358E-01  0.11775724834E-01  0.17980613458E-02  0.50000500000E+01  0.50000000000E+01 0. -1.
     100001    1    1    2    0    0  0.18923577358E-01 -0.11775724834E-01 -0.17980613458E-02  0.50000500000E+01  0.50000000000E+01 0.  0.
</event>
<event>
 4    1  0.4919875E-001  0.5000050E+01  0.7818608E-02  0.2136455E+00
        -11   -1    0    0    0    0  0.00000000000E+00  0.00000000000E+00  0.50000499739E+01  0.50000500000E+01  0.51100000000E-03 0. -1.
         11   -1    0    0    0    0 -0.00000000000E+00 -0.00000000000E+00 -0.50000499739E+01  0.50000500000E+01  0.51100000000E-03 0.  1.
     100001    1    1    2    0    0  0.10584962876E-01 -0.53395114680E-02 -0.18959184534E-01  0.50000500000E+01  0.50000000000E+01 0.  1.
     100001    1    1    2    0    0 -0.10584962876E-01  0.53395114680E-02  0.18959184534E-01  0.50000500000E+01  0.50000000000E+01 0.  0.
</event>
<event>
 4    1  0.4919875E-001  0.5000050E+01  0.7818608E-02  0.2136455E+00
        -11   -1    0    0    0    0  0.00000000000E+00  0.00000000000E+00  0.50000499739E+01  0.50000500000E+01  0.51100000000E-03 0. -1.
         11   -1    0    0    0    0 -0.00000000000E+00 -0.00000000000E+00 -0.50000499739E+01  0.50000500000E+01  0.51100000000E-03 0.  1.
     100001    1    1    2    0    0  0.52290873229E-02  0.20100069864E-01  0.82853085180E-02  0.50000500000E+01  0.50000000000E+01 0. -1.
     100001    1    1    2    0    0 -0.52290873229E-02 -0.20100069864E-01 -0.82853085180E-02  0.50000500000E+01  0.50000000000E+01 0.  1.
</event>
<event>
 4    1  0.4919875E-001  0.5000050E+01  0.7818608E-02  0.2136455E+00
        -11   -1    0    0    0    0  0.00000000000E+00  0.00000000000E+00  0.50000499739E+01  0.50000500000E+01  0.51100000000E-03 0.  1.
         11   -1    0    0    0    0 -0.00000000000E+00 -0.00000000000E+00 -0.50000499739E+01  0.50000500000E+01  0.51100000000E-03 0. -1.
     100001    1    1    2    0    0  0.30507379140E-02 -0.22151614911E-01 -0.38144842095E-04  0.50000500000E+01  0.50000000000E+01 0.  1.
     100001    1    1    2    0    0 -0.30507379140E-02  0.22151614911E-01  0.38144842095E-04  0.50000500000E+01  0.50000000000E+01 0. -1.
</event>
<event>
 4    1  0.4919875E-001  0.5000050E+01  0.7818608E-02  0.2136455E+00
        -11   -1    0    0    0    0  0.00000000000E+00  0.00000000000E+00  0.50000499739E+01  0.50000500000E+01  0.51100000000E-03 0. -1.
         11   -1    0    0    0    0 -0.00000000000E+00 -0.00000000000E+00 -0.50000499739E+01  0.50000500000E+01  0.51100000000E-03 0.  1.
     100001    1    1    2    0    0 -0.64226714468E-02 -0.13364458819E-01 -0.16737473883E-01  0.50000500000E+01  0.50000000000E+01 0.  1.
     100001    1    1    2    0    0  0.64226714468E-02  0.13364458819E-01  0.16737473883E-01  0.50000500000E+01  0.50000000000E+01 0. -1.
</event>
<event>
 4    1  0.4919875E-001  0.5000050E+01  0.7818608E-02  0.2136455E+00
        -11   -1    0    0    0    0  0.00000000000E+00  0.00000000000E+00  0.50000499739E+01  0.50000500000E+01  0.51100000000E-03 0. -1.
         11   -1    0    0    0    0 -0.00000000000E+00 -0.00000000000E+00 -0.50000499739E+01  0.50000500000E+01  0.51100000000E-03 0.  1.
     100001    1    1    2    0    0  0.49096731608E-02 -0.20613137701E-01  0.71411598188E-02  0.50000500000E+01  0.50000000000E+01 0. -1.
     100001    1    1    2    0    0 -0.49096731608E-02  0.20613137701E-01 -0.71411598188E-02  0.50000500000E+01  0.50000000000E+01 0.  1.
</event>
<event>
 4    1  0.4919875E-001  0.5000050E+01  0.7818608E-02  0.2136455E+00
        -11   -1    0    0    0    0  0.00000000000E+00  0.00000000000E+00  0.50000499739E+01  0.50000500000E+01  0.51100000000E-03 0.  1.
         11   -1    0    0    0    0 -0.00000000000E+00 -0.00000000000E+00 -0.50000499739E+01  0.50000500000E+01  0.51100000000E-03 0. -1.
     100001    1    1    2    0    0 -0.57078516638E-03  0.11832075968E-01 -0.18965196613E-01  0.50000500000E+01  0.50000000000E+01 0.  1.
     100001    1    1    2    0    0  0.57078516638E-03 -0.11832075968E-01  0.18965196613E-01  0.50000500000E+01  0.50000000000E+01 0.  0.
</event>
<event>
 4    1  0.4919875E-001  0.5000050E+01  0.7818608E-02  0.2136455E+00
        -11   -1    0    0    0    0  0.00000000000E+00  0.00000000000E+00  0.50000499739E+01  0.50000500000E+01  0.51100000000E-03 0. -1.
         11   -1    0    0    0    0 -0.00000000000E+00 -0.00000000000E+00 -0.50000499739E+01  0.50000500000E+01  0.51100000000E-03 0.  1.
     100001    1    1    2    0    0  0.86086823105E-02  0.12313662459E-01  0.16561002558E-01  0.50000500000E+01  0.50000000000E+01 0.  0.
     100001    1    1    2    0    0 -0.86086823105E-02 -0.12313662459E-01 -0.16561002558E-01  0.50000500000E+01  0.50000000000E+01 0.  0.
</event>
<event>
 4    1  0.4919875E-001  0.5000050E+01  0.7818608E-02  0.2136455E+00
        -11   -1    0    0    0    0  0.00000000000E+00  0.00000000000E+00  0.50000499739E+01  0.50000500000E+01  0.51100000000E-03 0. -1.
         11   -1    0    0    0    0 -0.00000000000E+00 -0.00000000000E+00 -0.50000499739E+01  0.50000500000E+01  0.51100000000E-03 0.  1.
     100001    1    1    2    0    0 -0.77126771862E-02 -0.11949707734E-02  0.20954454311E-01  0.50000500000E+01  0.50000000000E+01 0. -1.
     100001    1    1    2    0    0  0.77126771862E-02  0.11949707734E-02 -0.20954454311E-01  0.50000500000E+01  0.50000000000E+01 0.  1.
</event>
<event>
 4    1  0.4919875E-001  0.5000050E+01  0.7818608E-02  0.2136455E+00
        -11   -1    0    0    0    0  0.00000000000E+00  0.00000000000E+00  0.50000499739E+01  0.50000500000E+01  0.51100000000E-03 0.  1.
         11   -1    0    0    0    0 -0.00000000000E+00 -0.00000000000E+00 -0.50000499739E+01  0.50000500000E+01  0.51100000000E-03 0. -1.
     100001    1    1    2    0    0  0.10850103398E-01  0.16836214839E-01  0.99408061111E-02  0.50000500000E+01  0.50000000000E+01 0.  1.
     100001    1    1    2    0    0 -0.10850103398E-01 -0.16836214839E-01 -0.99408061111E-02  0.50000500000E+01  0.50000000000E+01 0. -1.
</event>
<event>
 4    1  0.4919875E-001  0.5000050E+01  0.7818608E-02  0.2136455E+00
        -11   -1    0    0    0    0  0.00000000000E+00  0.00000000000E+00  0.50000499739E+01  0.50000500000E+01  0.51100000000E-03 0.  1.
         11   -1    0    0    0    0 -0.00000000000E+00 -0.00000000000E+00 -0.50000499739E+01  0.50000500000E+01  0.51100000000E-03 0. -1.
     100001    1    1    2    0    0  0.20408826506E-01  0.84751240451E-02 -0.34138794725E-02  0.50000500000E+01  0.50000000000E+01 0. -1.
     100001    1    1    2    0    0 -0.20408826506E-01 -0.84751240451E-02  0.34138794725E-02  0.50000500000E+01  0.50000000000E+01 0.  0.
</event>
<event>
 4    1  0.4919875E-001  0.5000050E+01  0.7818608E-02  0.2136455E+00
        -11   -1    0    0    0    0  0.00000000000E+00  0.00000000000E+00  0.50000499739E+01  0.50000500000E+01  0.51100000000E-03 0.  1.
         11   -1    0    0    0    0 -0.00000000000E+00 -0.00000000000E+00 -0.50000499739E+01  0.50000500000E+01  0.51100000000E-03 0. -1.
     100001    1    1    2    0    0  0.21562993841E-01  0.21270418925E-02  0.55240826744E-02  0.50000500000E+01  0.50000000000E+01 0.  0.
     100001    1    1    2    0    0 -0.21562993841E-01 -0.21270418925E-02 -0.55240826744E-02  0.50000500000E+01  0.50000000000E+01 0.  1.
</event>
<event>
 4    1  0.4919875E-001  0.5000050E+01  0.7818608E-02  0.2136455E+00
        -11   -1    0    0    0    0  0.00000000000E+00  0.00000000000E+00  0.50000499739E+01  0.50000500000E+01  0.51100000000E-03 0.  1.
         11   -1    0    0    0    0 -0.00000000000E+00 -0.00000000000E+00 -0.50000499739E+01  0.50000500000E+01  0.51100000000E-03 0. -1.
     100001    1    1    2    0    0 -0.70276848985E-02 -0.20334883730E-01 -0.60915226862E-02  0.50000500000E+01  0.50000000000E+01 0. -1.
     100001    1    1    2    0    0  0.70276848985E-02  0.20334883730E-01  0.60915226862E-02  0.50000500000E+01  0.50000000000E+01 0.  1.
</event>
<event>
 4    1  0.4919875E-001  0.5000050E+01  0.7818608E-02  0.2136455E+00
        -11   -1    0    0    0    0  0.00000000000E+00  0.00000000000E+00  0.50000499739E+01  0.50000500000E+01  0.51100000000E-03 0.  1.
         11   -1    0    0    0    0 -0.00000000000E+00 -0.00000000000E+00 -0.50000499739E+01  0.50000500000E+01  0.51100000000E-03 0. -1.
     100001    1    1    2    0    0  0.58825795539E-02 -0.96240016925E-02  0.19307416948E-01  0.50000500000E+01  0.50000000000E+01 0.  1.
     100001    1    1    2    0    0 -0.58825795539E-02  0.96240016925E-02 -0.19307416948E-01  0.50000500000E+01  0.50000000000E+01 0.  1.
</event>
<event>
 4    1  0.4919875E-001  0.5000050E+01  0.7818608E-02  0.2136455E+00
        -11   -1    0    0    0    0  0.00000000000E+00  0.00000000000E+00  0.50000499739E+01  0.50000500000E+01  0.51100000000E-03 0.  1.
         11   -1    0    0    0    0 -0.00000000000E+00 -0.00000000000E+00 -0.50000499739E+01  0.50000500000E+01  0.51100000000E-03 0. -1.
     100001    1    1    2    0    0 -0.20618619683E-01  0.36618073250E-02  0.78400375941E-02  0.50000500000E+01  0.50000000000E+01 0. -1.
     100001    1    1    2    0    0  0.20618619683E-01 -0.36618073250E-02 -0.78400375941E-02  0.50000500000E+01  0.50000000000E+01 0.  1.
</event>
<event>
 4    1  0.4919875E-001  0.5000050E+01  0.7818608E-02  0.2136455E+00
        -11   -1    0    0    0    0  0.00000000000E+00  0.00000000000E+00  0.50000499739E+01  0.50000500000E+01  0.51100000000E-03 0. -1.
         11   -1    0    0    0    0 -0.00000000000E+00 -0.00000000000E+00 -0.50000499739E+01  0.50000500000E+01  0.51100000000E-03 0.  1.
     100001    1    1    2    0    0 -0.21802599661E-01 -0.57463229303E-03  0.49314243119E-02  0.50000500000E+01  0.50000000000E+01 0.  0.
     100001    1    1    2    0    0  0.21802599661E-01  0.57463229303E-03 -0.49314243119E-02  0.50000500000E+01  0.50000000000E+01 0. -1.
</event>
<event>
 4    1  0.4919875E-001  0.5000050E+01  0.7818608E-02  0.2136455E+00
        -11   -1    0    0    0    0  0.00000000000E+00  0.00000000000E+00  0.50000499739E+01  0.50000500000E+01  0.51100000000E-03 0. -1.
         11   -1    0    0    0    0 -0.00000000000E+00 -0.00000000000E+00 -0.50000499739E+01  0.50000500000E+01  0.51100000000E-03 0.  1.
     100001    1    1    2    0    0  0.18520199235E-02 -0.22071894774E-01  0.30665914761E-02  0.50000500000E+01  0.50000000000E+01 0. -1.
     100001    1    1    2    0    0 -0.18520199235E-02  0.22071894774E-01 -0.30665914761E-02  0.50000500000E+01  0.50000000000E+01 0.  1.
</event>
<event>
 4    1  0.4919875E-001  0.5000050E+01  0.7818608E-02  0.2136455E+00
        -11   -1    0    0    0    0  0.00000000000E+00  0.00000000000E+00  0.50000499739E+01  0.50000500000E+01  0.51100000000E-03 0. -1.
         11   -1    0    0    0    0 -0.00000000000E+00 -0.00000000000E+00 -0.50000499739E+01  0.50000500000E+01  0.51100000000E-03 0.  1.
     100001    1    1    2    0    0 -0.12842047788E-01  0.15222457418E-01 -0.10166666059E-01  0.50000500000E+01  0.50000000000E+01 0.  1.
     100001    1    1    2    0    0  0.12842047788E-01 -0.15222457418E-01  0.10166666059E-01  0.50000500000E+01  0.50000000000E+01 0. -1.
</event>
<event>
 4    1  0.4919875E-001  0.5000050E+01  0.7818608E-02  0.2136455E+00
        -11   -1    0    0    0    0  0.00000000000E+00  0.00000000000E+00  0.50000499739E+01  0.50000500000E+01  0.51100000000E-03 0.  1.
         11   -1    0    0    0    0 -0.00000000000E+00 -0.00000000000E+00 -0.50000499739E+01  0.50000500000E+01  0.51100000000E-03 0. -1.
     100001    1    1    2    0    0 -0.16617117901E-01  0.41372157571E-02 -0.14379059024E-01  0.50000500000E+01  0.50000000000E+01 0. -1.
     100001    1    1    2    0    0  0.16617117901E-01 -0.41372157571E-02  0.14379059024E-01  0.50000500000E+01  0.50000000000E+01 0.  1.
</event>
<event>
 4    1  0.4919875E-001  0.5000050E+01  0.7818608E-02  0.2136455E+00
        -11   -1    0    0    0    0  0.00000000000E+00  0.00000000000E+00  0.50000499739E+01  0.50000500000E+01  0.51100000000E-03 0.  1.
         11   -1    0    0    0    0 -0.00000000000E+00 -0.00000000000E+00 -0.50000499739E+01  0.50000500000E+01  0.51100000000E-03 0. -1.
     100001    1    1    2    0    0 -0.85856459609E-03  0.93106816410E-02  0.20311981051E-01  0.50000500000E+01  0.50000000000E+01 0.  0.
     100001    1    1    2    0    0  0.85856459609E-03 -0.93106816410E-02 -0.20311981051E-01  0.50000500000E+01  0.50000000000E+01 0. -1.
</event>
<event>
 4    1  0.4919875E-001  0.5000050E+01  0.7818608E-02  0.2136455E+00
        -11   -1    0    0    0    0  0.00000000000E+00  0.00000000000E+00  0.50000499739E+01  0.50000500000E+01  0.51100000000E-03 0.  1.
         11   -1    0    0    0    0 -0.00000000000E+00 -0.00000000000E+00 -0.50000499739E+01  0.50000500000E+01  0.51100000000E-03 0. -1.
     100001    1    1    2    0    0 -0.14107819854E-01 -0.13341011268E-01 -0.11090055786E-01  0.50000500000E+01  0.50000000000E+01 0.  0.
     100001    1    1    2    0    0  0.14107819854E-01  0.13341011268E-01  0.11090055786E-01  0.50000500000E+01  0.50000000000E+01 0.  0.
</event>
<event>
 4    1  0.4919875E-001  0.5000050E+01  0.7818608E-02  0.2136455E+00
        -11   -1    0    0    0    0  0.00000000000E+00  0.00000000000E+00  0.50000499739E+01  0.50000500000E+01  0.51100000000E-03 0. -1.
         11   -1    0    0    0    0 -0.00000000000E+00 -0.00000000000E+00 -0.50000499739E+01  0.50000500000E+01  0.51100000000E-03 0.  1.
     100001    1    1    2    0    0  0.18404984420E-01 -0.51854621737E-02  0.11591808770E-01  0.50000500000E+01  0.50000000000E+01 0.  0.
     100001    1    1    2    0    0 -0.18404984420E-01  0.51854621737E-02 -0.11591808770E-01  0.50000500000E+01  0.50000000000E+01 0.  0.
</event>
<event>
 4    1  0.4919875E-001  0.5000050E+01  0.7818608E-02  0.2136455E+00
        -11   -1    0    0    0    0  0.00000000000E+00  0.00000000000E+00  0.50000499739E+01  0.50000500000E+01  0.51100000000E-03 0.  1.
         11   -1    0    0    0    0 -0.00000000000E+00 -0.00000000000E+00 -0.50000499739E+01  0.50000500000E+01  0.51100000000E-03 0. -1.
     100001    1    1    2    0    0  0.17991626337E-01 -0.84001202111E-02 -0.10283086219E-01  0.50000500000E+01  0.50000000000E+01 0. -1.
     100001    1    1    2    0    0 -0.17991626337E-01  0.84001202111E-02  0.10283086219E-01  0.50000500000E+01  0.50000000000E+01 0.  1.
</event>
<event>
 4    1  0.4919875E-001  0.5000050E+01  0.7818608E-02  0.2136455E+00
        -11   -1    0    0    0    0  0.00000000000E+00  0.00000000000E+00  0.50000499739E+01  0.50000500000E+01  0.51100000000E-03 0.  1.
         11   -1    0    0    0    0 -0.00000000000E+00 -0.00000000000E+00 -0.50000499739E+01  0.50000500000E+01  0.51100000000E-03 0. -1.
     100001    1    1    2    0    0  0.14798189073E-01  0.15881217346E-01 -0.53668459766E-02  0.50000500000E+01  0.50000000000E+01 0.  1.
     100001    1    1    2    0    0 -0.14798189073E-01 -0.15881217346E-01  0.53668459766E-02  0.50000500000E+01  0.50000000000E+01 0.  0.
</event>
<event>
 4    1  0.4919875E-001  0.5000050E+01  0.7818608E-02  0.2136455E+00
        -11   -1    0    0    0    0  0.00000000000E+00  0.00000000000E+00  0.50000499739E+01  0.50000500000E+01  0.51100000000E-03 0.  1.
         11   -1    0    0    0    0 -0.00000000000E+00 -0.00000000000E+00 -0.50000499739E+01  0.50000500000E+01  0.51100000000E-03 0. -1.
     100001    1    1    2    0    0  0.55904798235E-02  0.12142889595E-01 -0.17924822666E-01  0.50000500000E+01  0.50000000000E+01 0.  0.
     100001    1    1    2    0    0 -0.55904798235E-02 -0.12142889595E-01  0.17924822666E-01  0.50000500000E+01  0.50000000000E+01 0.  0.
</event>
<event>
 4    1  0.4919875E-001  0.5000050E+01  0.7818608E-02  0.2136455E+00
        -11   -1    0    0    0    0  0.00000000000E+00  0.00000000000E+00  0.50000499739E+01  0.50000500000E+01  0.51100000000E-03 0.  1.
         11   -1    0    0    0    0 -0.00000000000E+00 -0.00000000000E+00 -0.50000499739E+01  0.50000500000E+01  0.51100000000E-03 0. -1.
     100001    1    1    2    0    0 -0.90824303503E-02 -0.20335584384E-01 -0.19939826205E-02  0.50000500000E+01  0.50000000000E+01 0. -1.
     100001    1    1    2    0    0  0.90824303503E-02  0.20335584384E-01  0.19939826205E-02  0.50000500000E+01  0.50000000000E+01 0.  1.
</event>
<event>
 4    1  0.4919875E-001  0.5000050E+01  0.7818608E-02  0.2136455E+00
        -11   -1    0    0    0    0  0.00000000000E+00  0.00000000000E+00  0.50000499739E+01  0.50000500000E+01  0.51100000000E-03 0. -1.
         11   -1    0    0    0    0 -0.00000000000E+00 -0.00000000000E+00 -0.50000499739E+01  0.50000500000E+01  0.51100000000E-03 0.  1.
     100001    1    1    2    0    0  0.20738533525E-01 -0.80872222887E-02 -0.21242793820E-02  0.50000500000E+01  0.50000000000E+01 0.  1.
     100001    1    1    2    0    0 -0.20738533525E-01  0.80872222887E-02  0.21242793820E-02  0.50000500000E+01  0.50000000000E+01 0.  0.
</event>
<event>
 4    1  0.4919875E-001  0.5000050E+01  0.7818608E-02  0.2136455E+00
        -11   -1    0    0    0    0  0.00000000000E+00  0.00000000000E+00  0.50000499739E+01  0.50000500000E+01  0.51100000000E-03 0.  1.
         11   -1    0    0    0    0 -0.00000000000E+00 -0.00000000000E+00 -0.50000499739E+01  0.50000500000E+01  0.51100000000E-03 0. -1.
     100001    1    1    2    0    0 -0.10602430006E-01  0.18096872856E-01  0.77520430082E-02  0.50000500000E+01  0.50000000000E+01 0. -1.
     100001    1    1    2    0    0  0.10602430006E-01 -0.18096872856E-01 -0.77520430082E-02  0.50000500000E+01  0.50000000000E+01 0. -1.
</event>
<event>
 4    1  0.4919875E-001  0.5000050E+01  0.7818608E-02  0.2136455E+00
        -11   -1    0    0    0    0  0.00000000000E+00  0.00000000000E+00  0.50000499739E+01  0.50000500000E+01  0.51100000000E-03 0.  1.
         11   -1    0    0    0    0 -0.00000000000E+00 -0.00000000000E+00 -0.50000499739E+01  0.50000500000E+01  0.51100000000E-03 0. -1.
     100001    1    1    2    0    0  0.17054662581E-01  0.14413838670E-01 -0.11756866293E-02  0.50000500000E+01  0.50000000000E+01 0. -1.
     100001    1    1    2    0    0 -0.17054662581E-01 -0.14413838670E-01  0.11756866293E-02  0.50000500000E+01  0.50000000000E+01 0.  0.
</event>
<event>
 4    1  0.4919875E-001  0.5000050E+01  0.7818608E-02  0.2136455E+00
        -11   -1    0    0    0    0  0.00000000000E+00  0.00000000000E+00  0.50000499739E+01  0.50000500000E+01  0.51100000000E-03 0. -1.
         11   -1    0    0    0    0 -0.00000000000E+00 -0.00000000000E+00 -0.50000499739E+01  0.50000500000E+01  0.51100000000E-03 0.  1.
     100001    1    1    2    0    0 -0.33752990915E-03 -0.91821561393E-02  0.20385695529E-01  0.50000500000E+01  0.50000000000E+01 0.  0.
     100001    1    1    2    0    0  0.33752990915E-03  0.91821561393E-02 -0.20385695529E-01  0.50000500000E+01  0.50000000000E+01 0.  1.
</event>
<event>
 4    1  0.4919875E-001  0.5000050E+01  0.7818608E-02  0.2136455E+00
        -11   -1    0    0    0    0  0.00000000000E+00  0.00000000000E+00  0.50000499739E+01  0.50000500000E+01  0.51100000000E-03 0.  1.
         11   -1    0    0    0    0 -0.00000000000E+00 -0.00000000000E+00 -0.50000499739E+01  0.50000500000E+01  0.51100000000E-03 0. -1.
     100001    1    1    2    0    0  0.49738216375E-02 -0.20980666524E-01  0.59224345085E-02  0.50000500000E+01  0.50000000000E+01 0.  1.
     100001    1    1    2    0    0 -0.49738216375E-02  0.20980666524E-01 -0.59224345085E-02  0.50000500000E+01  0.50000000000E+01 0.  1.
</event>
<event>
 4    1  0.4919875E-001  0.5000050E+01  0.7818608E-02  0.2136455E+00
        -11   -1    0    0    0    0  0.00000000000E+00  0.00000000000E+00  0.50000499739E+01  0.50000500000E+01  0.51100000000E-03 0. -1.
         11   -1    0    0    0    0 -0.00000000000E+00 -0.00000000000E+00 -0.50000499739E+01  0.50000500000E+01  0.51100000000E-03 0.  1.
     100001    1    1    2    0    0 -0.18358311192E-01  0.62673456600E-02  0.11121838362E-01  0.50000500000E+01  0.50000000000E+01 0. -1.
     100001    1    1    2    0    0  0.18358311192E-01 -0.62673456600E-02 -0.11121838362E-01  0.50000500000E+01  0.50000000000E+01 0.  1.
</event>
<event>
 4    1  0.4919875E-001  0.5000050E+01  0.7818608E-02  0.2136455E+00
        -11   -1    0    0    0    0  0.00000000000E+00  0.00000000000E+00  0.50000499739E+01  0.50000500000E+01  0.51100000000E-03 0. -1.
         11   -1    0    0    0    0 -0.00000000000E+00 -0.00000000000E+00 -0.50000499739E+01  0.50000500000E+01  0.51100000000E-03 0.  1.
     100001    1    1    2    0    0  0.17434070748E-01  0.13635600849E-01  0.31821481153E-02  0.50000500000E+01  0.50000000000E+01 0.  1.
     100001    1    1    2    0    0 -0.17434070748E-01 -0.13635600849E-01 -0.31821481153E-02  0.50000500000E+01  0.50000000000E+01 0. -1.
</event>
<event>
 4    1  0.4919875E-001  0.5000050E+01  0.7818608E-02  0.2136455E+00
        -11   -1    0    0    0    0  0.00000000000E+00  0.00000000000E+00  0.50000499739E+01  0.50000500000E+01  0.51100000000E-03 0. -1.
         11   -1    0    0    0    0 -0.00000000000E+00 -0.00000000000E+00 -0.50000499739E+01  0.50000500000E+01  0.51100000000E-03 0.  1.
     100001    1    1    2    0    0 -0.89908236381E-02  0.12810642952E-01 -0.15970441993E-01  0.50000500000E+01  0.50000000000E+01 0.  1.
     100001    1    1    2    0    0  0.89908236381E-02 -0.12810642952E-01  0.15970441993E-01  0.50000500000E+01  0.50000000000E+01 0. -1.
</event>
<event>
 4    1  0.4919875E-001  0.5000050E+01  0.7818608E-02  0.2136455E+00
        -11   -1    0    0    0    0  0.00000000000E+00  0.00000000000E+00  0.50000499739E+01  0.50000500000E+01  0.51100000000E-03 0.  1.
         11   -1    0    0    0    0 -0.00000000000E+00 -0.00000000000E+00 -0.50000499739E+01  0.50000500000E+01  0.51100000000E-03 0. -1.
     100001    1    1    2    0    0  0.62236245847E-02 -0.92903441887E-02 -0.19363845225E-01  0.50000500000E+01  0.50000000000E+01 0. -1.
     100001    1    1    2    0    0 -0.62236245847E-02  0.92903441887E-02  0.19363845225E-01  0.50000500000E+01  0.50000000000E+01 0.  0.
</event>
<event>
 4    1  0.4919875E-001  0.5000050E+01  0.7818608E-02  0.2136455E+00
        -11   -1    0    0    0    0  0.00000000000E+00  0.00000000000E+00  0.50000499739E+01  0.50000500000E+01  0.51100000000E-03 0. -1.
         11   -1    0    0    0    0 -0.00000000000E+00 -0.00000000000E+00 -0.50000499739E+01  0.50000500000E+01  0.51100000000E-03 0.  1.
     100001    1    1    2    0    0  0.16354681636E-01  0.82030870623E-02  0.12854425355E-01  0.50000500000E+01  0.50000000000E+01 0. -1.
     100001    1    1    2    0    0 -0.16354681636E-01 -0.82030870623E-02 -0.12854425355E-01  0.50000500000E+01  0.50000000000E+01 0.  1.
</event>
<event>
 4    1  0.4919875E-001  0.5000050E+01  0.7818608E-02  0.2136455E+00
        -11   -1    0    0    0    0  0.00000000000E+00  0.00000000000E+00  0.50000499739E+01  0.50000500000E+01  0.51100000000E-03 0.  1.
         11   -1    0    0    0    0 -0.00000000000E+00 -0.00000000000E+00 -0.50000499739E+01  0.50000500000E+01  0.51100000000E-03 0. -1.
     100001    1    1    2    0    0 -0.44871372771E-02  0.19392893283E-01  0.10187432904E-01  0.50000500000E+01  0.50000000000E+01 0. -1.
     100001    1    1    2    0    0  0.44871372771E-02 -0.19392893283E-01 -0.10187432904E-01  0.50000500000E+01  0.50000000000E+01 0.  0.
</event>
<event>
 4    1  0.4919875E-001  0.5000050E+01  0.7818608E-02  0.2136455E+00
        -11   -1    0    0    0    0  0.00000000000E+00  0.00000000000E+00  0.50000499739E+01  0.50000500000E+01  0.51100000000E-03 0. -1.
         11   -1    0    0    0    0 -0.00000000000E+00 -0.00000000000E+00 -0.50000499739E+01  0.50000500000E+01  0.51100000000E-03 0.  1.
     100001    1    1    2    0    0 -0.17259870591E-01  0.90234363091E-02  0.10985306748E-01  0.50000500000E+01  0.50000000000E+01 0.  0.
     100001    1    1    2    0    0  0.17259870591E-01 -0.90234363091E-02 -0.10985306748E-01  0.50000500000E+01  0.50000000000E+01 0. -1.
</event>
<event>
 4    1  0.4919875E-001  0.5000050E+01  0.7818608E-02  0.2136455E+00
        -11   -1    0    0    0    0  0.00000000000E+00  0.00000000000E+00  0.50000499739E+01  0.50000500000E+01  0.51100000000E-03 0.  1.
         11   -1    0    0    0    0 -0.00000000000E+00 -0.00000000000E+00 -0.50000499739E+01  0.50000500000E+01  0.51100000000E-03 0. -1.
     100001    1    1    2    0    0 -0.40532671732E-02 -0.10441301577E-02  0.21965502895E-01  0.50000500000E+01  0.50000000000E+01 0.  0.
     100001    1    1    2    0    0  0.40532671732E-02  0.10441301577E-02 -0.21965502895E-01  0.50000500000E+01  0.50000000000E+01 0. -1.
</event>
<event>
 4    1  0.4919875E-001  0.5000050E+01  0.7818608E-02  0.2136455E+00
        -11   -1    0    0    0    0  0.00000000000E+00  0.00000000000E+00  0.50000499739E+01  0.50000500000E+01  0.51100000000E-03 0.  1.
         11   -1    0    0    0    0 -0.00000000000E+00 -0.00000000000E+00 -0.50000499739E+01  0.50000500000E+01  0.51100000000E-03 0. -1.
     100001    1    1    2    0    0 -0.67497828303E-02  0.17298935698E-01 -0.12457518030E-01  0.50000500000E+01  0.50000000000E+01 0. -1.
     100001    1    1    2    0    0  0.67497828303E-02 -0.17298935698E-01  0.12457518030E-01  0.50000500000E+01  0.50000000000E+01 0.  1.
</event>
<event>
 4    1  0.4919875E-001  0.5000050E+01  0.7818608E-02  0.2136455E+00
        -11   -1    0    0    0    0  0.00000000000E+00  0.00000000000E+00  0.50000499739E+01  0.50000500000E+01  0.51100000000E-03 0. -1.
         11   -1    0    0    0    0 -0.00000000000E+00 -0.00000000000E+00 -0.50000499739E+01  0.50000500000E+01  0.51100000000E-03 0.  1.
     100001    1    1    2    0    0  0.43782967547E-02  0.26486971850E-02  0.21767347582E-01  0.50000500000E+01  0.50000000000E+01 0.  0.
     100001    1    1    2    0    0 -0.43782967547E-02 -0.26486971850E-02 -0.21767347582E-01  0.50000500000E+01  0.50000000000E+01 0.  1.
</event>
<event>
 4    1  0.4919875E-001  0.5000050E+01  0.7818608E-02  0.2136455E+00
        -11   -1    0    0    0    0  0.00000000000E+00  0.00000000000E+00  0.50000499739E+01  0.50000500000E+01  0.51100000000E-03 0.  1.
         11   -1    0    0    0    0 -0.00000000000E+00 -0.00000000000E+00 -0.50000499739E+01  0.50000500000E+01  0.51100000000E-03 0. -1.
     100001    1    1    2    0    0 -0.10768209912E-01  0.17440958756E-01 -0.89365045159E-02  0.50000500000E+01  0.50000000000E+01 0.  0.
     100001    1    1    2    0    0  0.10768209912E-01 -0.17440958756E-01  0.89365045159E-02  0.50000500000E+01  0.50000000000E+01 0.  0.
</event>
<event>
 4    1  0.4919875E-001  0.5000050E+01  0.7818608E-02  0.2136455E+00
        -11   -1    0    0    0    0  0.00000000000E+00  0.00000000000E+00  0.50000499739E+01  0.50000500000E+01  0.51100000000E-03 0.  1.
         11   -1    0    0    0    0 -0.00000000000E+00 -0.00000000000E+00 -0.50000499739E+01  0.50000500000E+01  0.51100000000E-03 0. -1.
     100001    1    1    2    0    0 -0.22097228928E-01 -0.32517999739E-03  0.34072322586E-02  0.50000500000E+01  0.50000000000E+01 0. -1.
     100001    1    1    2    0    0  0.22097228928E-01  0.32517999739E-03 -0.34072322586E-02  0.50000500000E+01  0.50000000000E+01 0.  1.
</event>
<event>
 4    1  0.4919875E-001  0.5000050E+01  0.7818608E-02  0.2136455E+00
        -11   -1    0    0    0    0  0.00000000000E+00  0.00000000000E+00  0.50000499739E+01  0.50000500000E+01  0.51100000000E-03 0. -1.
         11   -1    0    0    0    0 -0.00000000000E+00 -0.00000000000E+00 -0.50000499739E+01  0.50000500000E+01  0.51100000000E-03 0.  1.
     100001    1    1    2    0    0 -0.20125655791E-01  0.80435909544E-02 -0.55010111393E-02  0.50000500000E+01  0.50000000000E+01 0.  1.
     100001    1    1    2    0    0  0.20125655791E-01 -0.80435909544E-02  0.55010111393E-02  0.50000500000E+01  0.50000000000E+01 0.  0.
</event>
<event>
 4    1  0.4919875E-001  0.5000050E+01  0.7818608E-02  0.2136455E+00
        -11   -1    0    0    0    0  0.00000000000E+00  0.00000000000E+00  0.50000499739E+01  0.50000500000E+01  0.51100000000E-03 0. -1.
         11   -1    0    0    0    0 -0.00000000000E+00 -0.00000000000E+00 -0.50000499739E+01  0.50000500000E+01  0.51100000000E-03 0.  1.
     100001    1    1    2    0    0  0.12227121159E-01 -0.11133475652E-01 -0.15051436079E-01  0.50000500000E+01  0.50000000000E+01 0.  1.
     100001    1    1    2    0    0 -0.12227121159E-01  0.11133475652E-01  0.15051436079E-01  0.50000500000E+01  0.50000000000E+01 0.  0.
</event>
<event>
 4    1  0.4919875E-001  0.5000050E+01  0.7818608E-02  0.2136455E+00
        -11   -1    0    0    0    0  0.00000000000E+00  0.00000000000E+00  0.50000499739E+01  0.50000500000E+01  0.51100000000E-03 0. -1.
         11   -1    0    0    0    0 -0.00000000000E+00 -0.00000000000E+00 -0.50000499739E+01  0.50000500000E+01  0.51100000000E-03 0.  1.
     100001    1    1    2    0    0 -0.44780544110E-03 -0.22257797482E-01 -0.20958104766E-02  0.50000500000E+01  0.50000000000E+01 0.  0.
     100001    1    1    2    0    0  0.44780544110E-03  0.22257797482E-01  0.20958104766E-02  0.50000500000E+01  0.50000000000E+01 0.  1.
</event>
<event>
 4    1  0.4919875E-001  0.5000050E+01  0.7818608E-02  0.2136455E+00
        -11   -1    0    0    0    0  0.00000000000E+00  0.00000000000E+00  0.50000499739E+01  0.50000500000E+01  0.51100000000E-03 0. -1.
         11   -1    0    0    0    0 -0.00000000000E+00 -0.00000000000E+00 -0.50000499739E+01  0.50000500000E+01  0.51100000000E-03 0.  1.
     100001    1    1    2    0    0  0.93652826134E-02  0.12301409979E-01 -0.16154544070E-01  0.50000500000E+01  0.50000000000E+01 0.  1.
     100001    1    1    2    0    0 -0.93652826134E-02 -0.12301409979E-01  0.16154544070E-01  0.50000500000E+01  0.50000000000E+01 0. -1.
</event>
<event>
 4    1  0.4919875E-001  0.5000050E+01  0.7818608E-02  0.2136455E+00
        -11   -1    0    0    0    0  0.00000000000E+00  0.00000000000E+00  0.50000499739E+01  0.50000500000E+01  0.51100000000E-03 0.  1.
         11   -1    0    0    0    0 -0.00000000000E+00 -0.00000000000E+00 -0.50000499739E+01  0.50000500000E+01  0.51100000000E-03 0. -1.
     100001    1    1    2    0    0 -0.88967894209E-03  0.22201443705E-01 -0.25113480041E-02  0.50000500000E+01  0.50000000000E+01 0.  1.
     100001    1    1    2    0    0  0.88967894209E-03 -0.22201443705E-01  0.25113480041E-02  0.50000500000E+01  0.50000000000E+01 0.  0.
</event>
<event>
 4    1  0.4919875E-001  0.5000050E+01  0.7818608E-02  0.2136455E+00
        -11   -1    0    0    0    0  0.00000000000E+00  0.00000000000E+00  0.50000499739E+01  0.50000500000E+01  0.51100000000E-03 0. -1.
         11   -1    0    0    0    0 -0.00000000000E+00 -0.00000000000E+00 -0.50000499739E+01  0.50000500000E+01  0.51100000000E-03 0.  1.
     100001    1    1    2    0    0  0.18901218332E-01  0.11632527175E-01  0.27259415012E-02  0.50000500000E+01  0.50000000000E+01 0.  1.
     100001    1    1    2    0    0 -0.18901218332E-01 -0.11632527175E-01 -0.27259415012E-02  0.50000500000E+01  0.50000000000E+01 0. -1.
</event>
<event>
 4    1  0.4919875E-001  0.5000050E+01  0.7818608E-02  0.2136455E+00
        -11   -1    0    0    0    0  0.00000000000E+00  0.00000000000E+00  0.50000499739E+01  0.50000500000E+01  0.51100000000E-03 0. -1.
         11   -1    0    0    0    0 -0.00000000000E+00 -0.00000000000E+00 -0.50000499739E+01  0.50000500000E+01  0.51100000000E-03 0.  1.
     100001    1    1    2    0    0 -0.18112021890E-01  0.10970230575E-01  0.71840938312E-02  0.50000500000E+01  0.50000000000E+01 0. -1.
     100001    1    1    2    0    0  0.18112021890E-01 -0.10970230575E-01 -0.71840938312E-02  0.50000500000E+01  0.50000000000E+01 0.  1.
</event>
<event>
 4    1  0.4919875E-001  0.5000050E+01  0.7818608E-02  0.2136455E+00
        -11   -1    0    0    0    0  0.00000000000E+00  0.00000000000E+00  0.50000499739E+01  0.50000500000E+01  0.51100000000E-03 0. -1.
         11   -1    0    0    0    0 -0.00000000000E+00 -0.00000000000E+00 -0.50000499739E+01  0.50000500000E+01  0.51100000000E-03 0.  1.
     100001    1    1    2    0    0 -0.54418599466E-02  0.21321436738E-01  0.39730335716E-02  0.50000500000E+01  0.50000000000E+01 0.  1.
     100001    1    1    2    0    0  0.54418599466E-02 -0.21321436738E-01 -0.39730335716E-02  0.50000500000E+01  0.50000000000E+01 0. -1.
</event>
<event>
 4    1  0.4919875E-001  0.5000050E+01  0.7818608E-02  0.2136455E+00
        -11   -1    0    0    0    0  0.00000000000E+00  0.00000000000E+00  0.50000499739E+01  0.50000500000E+01  0.51100000000E-03 0. -1.
         11   -1    0    0    0    0 -0.00000000000E+00 -0.00000000000E+00 -0.50000499739E+01  0.50000500000E+01  0.51100000000E-03 0.  1.
     100001    1    1    2    0    0  0.22354088021E-01 -0.53480858729E-03  0.10596466328E-03  0.50000500000E+01  0.50000000000E+01 0.  1.
     100001    1    1    2    0    0 -0.22354088021E-01  0.53480858729E-03 -0.10596466328E-03  0.50000500000E+01  0.50000000000E+01 0. -1.
</event>
<event>
 4    1  0.4919875E-001  0.5000050E+01  0.7818608E-02  0.2136455E+00
        -11   -1    0    0    0    0  0.00000000000E+00  0.00000000000E+00  0.50000499739E+01  0.50000500000E+01  0.51100000000E-03 0. -1.
         11   -1    0    0    0    0 -0.00000000000E+00 -0.00000000000E+00 -0.50000499739E+01  0.50000500000E+01  0.51100000000E-03 0.  1.
     100001    1    1    2    0    0 -0.24206170058E-02 -0.89690097756E-02  0.20339615949E-01  0.50000500000E+01  0.50000000000E+01 0. -1.
     100001    1    1    2    0    0  0.24206170058E-02  0.89690097756E-02 -0.20339615949E-01  0.50000500000E+01  0.50000000000E+01 0.  0.
</event>
<event>
 4    1  0.4919875E-001  0.5000050E+01  0.7818608E-02  0.2136455E+00
        -11   -1    0    0    0    0  0.00000000000E+00  0.00000000000E+00  0.50000499739E+01  0.50000500000E+01  0.51100000000E-03 0. -1.
         11   -1    0    0    0    0 -0.00000000000E+00 -0.00000000000E+00 -0.50000499739E+01  0.50000500000E+01  0.51100000000E-03 0.  1.
     100001    1    1    2    0    0  0.18171251228E-02 -0.13839847905E-01 -0.17468805519E-01  0.50000500000E+01  0.50000000000E+01 0. -1.
     100001    1    1    2    0    0 -0.18171251228E-02  0.13839847905E-01  0.17468805519E-01  0.50000500000E+01  0.50000000000E+01 0. -1.
</event>
<event>
 4    1  0.4919875E-001  0.5000050E+01  0.7818608E-02  0.2136455E+00
        -11   -1    0    0    0    0  0.00000000000E+00  0.00000000000E+00  0.50000499739E+01  0.50000500000E+01  0.51100000000E-03 0. -1.
         11   -1    0    0    0    0 -0.00000000000E+00 -0.00000000000E+00 -0.50000499739E+01  0.50000500000E+01  0.51100000000E-03 0.  1.
     100001    1    1    2    0    0 -0.67708529770E-02 -0.16893180569E-01 -0.12991477985E-01  0.50000500000E+01  0.50000000000E+01 0.  0.
     100001    1    1    2    0    0  0.67708529770E-02  0.16893180569E-01  0.12991477985E-01  0.50000500000E+01  0.50000000000E+01 0.  0.
</event>
<event>
 4    1  0.4919875E-001  0.5000050E+01  0.7818608E-02  0.2136455E+00
        -11   -1    0    0    0    0  0.00000000000E+00  0.00000000000E+00  0.50000499739E+01  0.50000500000E+01  0.51100000000E-03 0. -1.
         11   -1    0    0    0    0 -0.00000000000E+00 -0.00000000000E+00 -0.50000499739E+01  0.50000500000E+01  0.51100000000E-03 0.  1.
     100001    1    1    2    0    0  0.21988386473E-01 -0.82884080998E-04  0.40628180529E-02  0.50000500000E+01  0.50000000000E+01 0.  0.
     100001    1    1    2    0    0 -0.21988386473E-01  0.82884080998E-04 -0.40628180529E-02  0.50000500000E+01  0.50000000000E+01 0. -1.
</event>
<event>
 4    1  0.4919875E-001  0.5000050E+01  0.7818608E-02  0.2136455E+00
        -11   -1    0    0    0    0  0.00000000000E+00  0.00000000000E+00  0.50000499739E+01  0.50000500000E+01  0.51100000000E-03 0.  1.
         11   -1    0    0    0    0 -0.00000000000E+00 -0.00000000000E+00 -0.50000499739E+01  0.50000500000E+01  0.51100000000E-03 0. -1.
     100001    1    1    2    0    0  0.79128649472E-02  0.42406946017E-02 -0.20479393976E-01  0.50000500000E+01  0.50000000000E+01 0. -1.
     100001    1    1    2    0    0 -0.79128649472E-02 -0.42406946017E-02  0.20479393976E-01  0.50000500000E+01  0.50000000000E+01 0.  1.
</event>
<event>
 4    1  0.4919875E-001  0.5000050E+01  0.7818608E-02  0.2136455E+00
        -11   -1    0    0    0    0  0.00000000000E+00  0.00000000000E+00  0.50000499739E+01  0.50000500000E+01  0.51100000000E-03 0. -1.
         11   -1    0    0    0    0 -0.00000000000E+00 -0.00000000000E+00 -0.50000499739E+01  0.50000500000E+01  0.51100000000E-03 0.  1.
     100001    1    1    2    0    0  0.17053397160E-02  0.20829640823E-01 -0.79511244253E-02  0.50000500000E+01  0.50000000000E+01 0.  1.
     100001    1    1    2    0    0 -0.17053397160E-02 -0.20829640823E-01  0.79511244253E-02  0.50000500000E+01  0.50000000000E+01 0. -1.
</event>
<event>
 4    1  0.4919875E-001  0.5000050E+01  0.7818608E-02  0.2136455E+00
        -11   -1    0    0    0    0  0.00000000000E+00  0.00000000000E+00  0.50000499739E+01  0.50000500000E+01  0.51100000000E-03 0. -1.
         11   -1    0    0    0    0 -0.00000000000E+00 -0.00000000000E+00 -0.50000499739E+01  0.50000500000E+01  0.51100000000E-03 0.  1.
     100001    1    1    2    0    0  0.95494487964E-02 -0.19711979822E-01  0.44998199044E-02  0.50000500000E+01  0.50000000000E+01 0.  0.
     100001    1    1    2    0    0 -0.95494487964E-02  0.19711979822E-01 -0.44998199044E-02  0.50000500000E+01  0.50000000000E+01 0.  1.
</event>
<event>
 4    1  0.4919875E-001  0.5000050E+01  0.7818608E-02  0.2136455E+00
        -11   -1    0    0    0    0  0.00000000000E+00  0.00000000000E+00  0.50000499739E+01  0.50000500000E+01  0.51100000000E-03 0.  1.
         11   -1    0    0    0    0 -0.00000000000E+00 -0.00000000000E+00 -0.50000499739E+01  0.50000500000E+01  0.51100000000E-03 0. -1.
     100001    1    1    2    0    0  0.41783341485E-02 -0.74605845064E-02  0.20661164114E-01  0.50000500000E+01  0.50000000000E+01 0.  1.
     100001    1    1    2    0    0 -0.41783341485E-02  0.74605845064E-02 -0.20661164114E-01  0.50000500000E+01  0.50000000000E+01 0. -1.
</event>
<event>
 4    1  0.4919875E-001  0.5000050E+01  0.7818608E-02  0.2136455E+00
        -11   -1    0    0    0    0  0.00000000000E+00  0.00000000000E+00  0.50000499739E+01  0.50000500000E+01  0.51100000000E-03 0.  1.
         11   -1    0    0    0    0 -0.00000000000E+00 -0.00000000000E+00 -0.50000499739E+01  0.50000500000E+01  0.51100000000E-03 0. -1.
     100001    1    1    2    0    0 -0.22166344148E-01  0.15458718250E-02 -0.25031914441E-02  0.50000500000E+01  0.50000000000E+01 0.  0.
     100001    1    1    2    0    0  0.22166344148E-01 -0.15458718250E-02  0.25031914441E-02  0.50000500000E+01  0.50000000000E+01 0. -1.
</event>
<event>
 4    1  0.4919875E-001  0.5000050E+01  0.7818608E-02  0.2136455E+00
        -11   -1    0    0    0    0  0.00000000000E+00  0.00000000000E+00  0.50000499739E+01  0.50000500000E+01  0.51100000000E-03 0.  1.
         11   -1    0    0    0    0 -0.00000000000E+00 -0.00000000000E+00 -0.50000499739E+01  0.50000500000E+01  0.51100000000E-03 0. -1.
     100001    1    1    2    0    0 -0.13129152909E-01 -0.48379463047E-03  0.18094026270E-01  0.50000500000E+01  0.50000000000E+01 0.  0.
     100001    1    1    2    0    0  0.13129152909E-01  0.48379463047E-03 -0.18094026270E-01  0.50000500000E+01  0.50000000000E+01 0.  1.
</event>
<event>
 4    1  0.4919875E-001  0.5000050E+01  0.7818608E-02  0.2136455E+00
        -11   -1    0    0    0    0  0.00000000000E+00  0.00000000000E+00  0.50000499739E+01  0.50000500000E+01  0.51100000000E-03 0. -1.
         11   -1    0    0    0    0 -0.00000000000E+00 -0.00000000000E+00 -0.50000499739E+01  0.50000500000E+01  0.51100000000E-03 0.  1.
     100001    1    1    2    0    0 -0.17031778840E-02  0.16485438050E-01  0.15011063167E-01  0.50000500000E+01  0.50000000000E+01 0. -1.
     100001    1    1    2    0    0  0.17031778840E-02 -0.16485438050E-01 -0.15011063167E-01  0.50000500000E+01  0.50000000000E+01 0. -1.
</event>
<event>
 4    1  0.4919875E-001  0.5000050E+01  0.7818608E-02  0.2136455E+00
        -11   -1    0    0    0    0  0.00000000000E+00  0.00000000000E+00  0.50000499739E+01  0.50000500000E+01  0.51100000000E-03 0.  1.
         11   -1    0    0    0    0 -0.00000000000E+00 -0.00000000000E+00 -0.50000499739E+01  0.50000500000E+01  0.51100000000E-03 0. -1.
     100001    1    1    2    0    0  0.89566925761E-02  0.49546255842E-02 -0.19880438713E-01  0.50000500000E+01  0.50000000000E+01 0.  0.
     100001    1    1    2    0    0 -0.89566925761E-02 -0.49546255842E-02  0.19880438713E-01  0.50000500000E+01  0.50000000000E+01 0.  1.
</event>
<event>
 4    1  0.4919875E-001  0.5000050E+01  0.7818608E-02  0.2136455E+00
        -11   -1    0    0    0    0  0.00000000000E+00  0.00000000000E+00  0.50000499739E+01  0.50000500000E+01  0.51100000000E-03 0. -1.
         11   -1    0    0    0    0 -0.00000000000E+00 -0.00000000000E+00 -0.50000499739E+01  0.50000500000E+01  0.51100000000E-03 0.  1.
     100001    1    1    2    0    0 -0.83377887534E-02 -0.10977094134E-01 -0.17606452882E-01  0.50000500000E+01  0.50000000000E+01 0. -1.
     100001    1    1    2    0    0  0.83377887534E-02  0.10977094134E-01  0.17606452882E-01  0.50000500000E+01  0.50000000000E+01 0. -1.
</event>
<event>
 4    1  0.4919875E-001  0.5000050E+01  0.7818608E-02  0.2136455E+00
        -11   -1    0    0    0    0  0.00000000000E+00  0.00000000000E+00  0.50000499739E+01  0.50000500000E+01  0.51100000000E-03 0. -1.
         11   -1    0    0    0    0 -0.00000000000E+00 -0.00000000000E+00 -0.50000499739E+01  0.50000500000E+01  0.51100000000E-03 0.  1.
     100001    1    1    2    0    0  0.18295698926E-01  0.32119956135E-02 -0.12448011287E-01  0.50000500000E+01  0.50000000000E+01 0.  0.
     100001    1    1    2    0    0 -0.18295698926E-01 -0.32119956135E-02  0.12448011287E-01  0.50000500000E+01  0.50000000000E+01 0.  0.
</event>
<event>
 4    1  0.4919875E-001  0.5000050E+01  0.7818608E-02  0.2136455E+00
        -11   -1    0    0    0    0  0.00000000000E+00  0.00000000000E+00  0.50000499739E+01  0.50000500000E+01  0.51100000000E-03 0.  1.
         11   -1    0    0    0    0 -0.00000000000E+00 -0.00000000000E+00 -0.50000499739E+01  0.50000500000E+01  0.51100000000E-03 0. -1.
     100001    1    1    2    0    0 -0.13624817997E-01  0.16474837381E-01 -0.65533630925E-02  0.50000500000E+01  0.50000000000E+01 0. -1.
     100001    1    1    2    0    0  0.13624817997E-01 -0.16474837381E-01  0.65533630925E-02  0.50000500000E+01  0.50000000000E+01 0.  0.
</event>
<event>
 4    1  0.4919875E-001  0.5000050E+01  0.7818608E-02  0.2136455E+00
        -11   -1    0    0    0    0  0.00000000000E+00  0.00000000000E+00  0.50000499739E+01  0.50000500000E+01  0.51100000000E-03 0. -1.
         11   -1    0    0    0    0 -0.00000000000E+00 -0.00000000000E+00 -0.50000499739E+01  0.50000500000E+01  0.51100000000E-03 0.  1.
     100001    1    1    2    0    0 -0.10302976139E-02 -0.22315372183E-01 -0.98242107341E-03  0.50000500000E+01  0.50000000000E+01 0.  0.
     100001    1    1    2    0    0  0.10302976139E-02  0.22315372183E-01  0.98242107341E-03  0.50000500000E+01  0.50000000000E+01 0.  1.
</event>
<event>
 4    1  0.4919875E-001  0.5000050E+01  0.7818608E-02  0.2136455E+00
        -11   -1    0    0    0    0  0.00000000000E+00  0.00000000000E+00  0.50000499739E+01  0.50000500000E+01  0.51100000000E-03 0. -1.
         11   -1    0    0    0    0 -0.00000000000E+00 -0.00000000000E+00 -0.50000499739E+01  0.50000500000E+01  0.51100000000E-03 0.  1.
     100001    1    1    2    0    0 -0.88107838739E-02 -0.30543953886E-02  0.20323465658E-01  0.50000500000E+01  0.50000000000E+01 0. -1.
     100001    1    1    2    0    0  0.88107838739E-02  0.30543953886E-02 -0.20323465658E-01  0.50000500000E+01  0.50000000000E+01 0.  0.
</event>
<event>
 4    1  0.4919875E-001  0.5000050E+01  0.7818608E-02  0.2136455E+00
        -11   -1    0    0    0    0  0.00000000000E+00  0.00000000000E+00  0.50000499739E+01  0.50000500000E+01  0.51100000000E-03 0. -1.
         11   -1    0    0    0    0 -0.00000000000E+00 -0.00000000000E+00 -0.50000499739E+01  0.50000500000E+01  0.51100000000E-03 0.  1.
     100001    1    1    2    0    0  0.35126547318E-02 -0.85619869149E-02 -0.20355739653E-01  0.50000500000E+01  0.50000000000E+01 0.  0.
     100001    1    1    2    0    0 -0.35126547318E-02  0.85619869149E-02  0.20355739653E-01  0.50000500000E+01  0.50000000000E+01 0.  0.
</event>
<event>
 4    1  0.4919875E-001  0.5000050E+01  0.7818608E-02  0.2136455E+00
        -11   -1    0    0    0    0  0.00000000000E+00  0.00000000000E+00  0.50000499739E+01  0.50000500000E+01  0.51100000000E-03 0. -1.
         11   -1    0    0    0    0 -0.00000000000E+00 -0.00000000000E+00 -0.50000499739E+01  0.50000500000E+01  0.51100000000E-03 0.  1.
     100001    1    1    2    0    0  0.19300165671E-01  0.40508285363E-02  0.10540251099E-01  0.50000500000E+01  0.50000000000E+01 0. -1.
     100001    1    1    2    0    0 -0.19300165671E-01 -0.40508285363E-02 -0.10540251099E-01  0.50000500000E+01  0.50000000000E+01 0.  1.
</event>
<event>
 4    1  0.4919875E-001  0.5000050E+01  0.7818608E-02  0.2136455E+00
        -11   -1    0    0    0    0  0.00000000000E+00  0.00000000000E+00  0.50000499739E+01  0.50000500000E+01  0.51100000000E-03 0. -1.
         11   -1    0    0    0    0 -0.00000000000E+00 -0.00000000000E+00 -0.50000499739E+01  0.50000500000E+01  0.51100000000E-03 0.  1.
     100001    1    1    2    0    0  0.82035563994E-02  0.28375985643E-02 -0.20607090935E-01  0.50000500000E+01  0.50000000000E+01 0.  0.
     100001    1    1    2    0    0 -0.82035563994E-02 -0.28375985643E-02  0.20607090935E-01  0.50000500000E+01  0.50000000000E+01 0.  0.
</event>
<event>
 4    1  0.4919875E-001  0.5000050E+01  0.7818608E-02  0.2136455E+00
        -11   -1    0    0    0    0  0.00000000000E+00  0.00000000000E+00  0.50000499739E+01  0.50000500000E+01  0.51100000000E-03 0.  1.
         11   -1    0    0    0    0 -0.00000000000E+00 -0.00000000000E+00 -0.50000499739E+01  0.50000500000E+01  0.51100000000E-03 0. -1.
     100001    1    1    2    0    0 -0.14383862591E-02 -0.18270491623E-01 -0.12811037461E-01  0.50000500000E+01  0.50000000000E+01 0. -1.
     100001    1    1    2    0    0  0.14383862591E-02  0.18270491623E-01  0.12811037461E-01  0.50000500000E+01  0.50000000000E+01 0.  1.
</event>
<event>
 4    1  0.4919875E-001  0.5000050E+01  0.7818608E-02  0.2136455E+00
        -11   -1    0    0    0    0  0.00000000000E+00  0.00000000000E+00  0.50000499739E+01  0.50000500000E+01  0.51100000000E-03 0.  1.
         11   -1    0    0    0    0 -0.00000000000E+00 -0.00000000000E+00 -0.50000499739E+01  0.50000500000E+01  0.51100000000E-03 0. -1.
     100001    1    1    2    0    0  0.34859553685E-02 -0.41524671068E-02  0.21693492851E-01  0.50000500000E+01  0.50000000000E+01 0.  0.
     100001    1    1    2    0    0 -0.34859553685E-02  0.41524671068E-02 -0.21693492851E-01  0.50000500000E+01  0.50000000000E+01 0. -1.
</event>
<event>
 4    1  0.4919875E-001  0.5000050E+01  0.7818608E-02  0.2136455E+00
        -11   -1    0    0    0    0  0.00000000000E+00  0.00000000000E+00  0.50000499739E+01  0.50000500000E+01  0.51100000000E-03 0. -1.
         11   -1    0    0    0    0 -0.00000000000E+00 -0.00000000000E+00 -0.50000499739E+01  0.50000500000E+01  0.51100000000E-03 0.  1.
     100001    1    1    2    0    0  0.18248403915E-01  0.91193075111E-02  0.91562265734E-02  0.50000500000E+01  0.50000000000E+01 0.  0.
     100001    1    1    2    0    0 -0.18248403915E-01 -0.91193075111E-02 -0.91562265734E-02  0.50000500000E+01  0.50000000000E+01 0. -1.
</event>
<event>
 4    1  0.4919875E-001  0.5000050E+01  0.7818608E-02  0.2136455E+00
        -11   -1    0    0    0    0  0.00000000000E+00  0.00000000000E+00  0.50000499739E+01  0.50000500000E+01  0.51100000000E-03 0.  1.
         11   -1    0    0    0    0 -0.00000000000E+00 -0.00000000000E+00 -0.50000499739E+01  0.50000500000E+01  0.51100000000E-03 0. -1.
     100001    1    1    2    0    0  0.12645162274E-01 -0.17472029178E-01 -0.59017427493E-02  0.50000500000E+01  0.50000000000E+01 0.  0.
     100001    1    1    2    0    0 -0.12645162274E-01  0.17472029178E-01  0.59017427493E-02  0.50000500000E+01  0.50000000000E+01 0.  0.
</event>
<event>
 4    1  0.4919875E-001  0.5000050E+01  0.7818608E-02  0.2136455E+00
        -11   -1    0    0    0    0  0.00000000000E+00  0.00000000000E+00  0.50000499739E+01  0.50000500000E+01  0.51100000000E-03 0. -1.
         11   -1    0    0    0    0 -0.00000000000E+00 -0.00000000000E+00 -0.50000499739E+01  0.50000500000E+01  0.51100000000E-03 0.  1.
     100001    1    1    2    0    0  0.92122625879E-02 -0.80334529888E-02  0.18724325117E-01  0.50000500000E+01  0.50000000000E+01 0. -1.
     100001    1    1    2    0    0 -0.92122625879E-02  0.80334529888E-02 -0.18724325117E-01  0.50000500000E+01  0.50000000000E+01 0.  0.
</event>
<event>
 4    1  0.4919875E-001  0.5000050E+01  0.7818608E-02  0.2136455E+00
        -11   -1    0    0    0    0  0.00000000000E+00  0.00000000000E+00  0.50000499739E+01  0.50000500000E+01  0.51100000000E-03 0.  1.
         11   -1    0    0    0    0 -0.00000000000E+00 -0.00000000000E+00 -0.50000499739E+01  0.50000500000E+01  0.51100000000E-03 0. -1.
     100001    1    1    2    0    0 -0.12816883489E-01 -0.18069326985E-01 -0.30379960367E-02  0.50000500000E+01  0.50000000000E+01 0.  1.
     100001    1    1    2    0    0  0.12816883489E-01  0.18069326985E-01  0.30379960367E-02  0.50000500000E+01  0.50000000000E+01 0. -1.
</event>
<event>
 4    1  0.4919875E-001  0.5000050E+01  0.7818608E-02  0.2136455E+00
        -11   -1    0    0    0    0  0.00000000000E+00  0.00000000000E+00  0.50000499739E+01  0.50000500000E+01  0.51100000000E-03 0.  1.
         11   -1    0    0    0    0 -0.00000000000E+00 -0.00000000000E+00 -0.50000499739E+01  0.50000500000E+01  0.51100000000E-03 0. -1.
     100001    1    1    2    0    0 -0.21971564249E-01  0.34073999493E-03 -0.41396570772E-02  0.50000500000E+01  0.50000000000E+01 0.  1.
     100001    1    1    2    0    0  0.21971564249E-01 -0.34073999493E-03  0.41396570772E-02  0.50000500000E+01  0.50000000000E+01 0.  0.
</event>
<event>
 4    1  0.4919875E-001  0.5000050E+01  0.7818608E-02  0.2136455E+00
        -11   -1    0    0    0    0  0.00000000000E+00  0.00000000000E+00  0.50000499739E+01  0.50000500000E+01  0.51100000000E-03 0. -1.
         11   -1    0    0    0    0 -0.00000000000E+00 -0.00000000000E+00 -0.50000499739E+01  0.50000500000E+01  0.51100000000E-03 0.  1.
     100001    1    1    2    0    0  0.22038634216E-01 -0.62097974045E-03  0.37303466401E-02  0.50000500000E+01  0.50000000000E+01 0.  1.
     100001    1    1    2    0    0 -0.22038634216E-01  0.62097974045E-03 -0.37303466401E-02  0.50000500000E+01  0.50000000000E+01 0. -1.
</event>
<event>
 4    1  0.4919875E-001  0.5000050E+01  0.7818608E-02  0.2136455E+00
        -11   -1    0    0    0    0  0.00000000000E+00  0.00000000000E+00  0.50000499739E+01  0.50000500000E+01  0.51100000000E-03 0. -1.
         11   -1    0    0    0    0 -0.00000000000E+00 -0.00000000000E+00 -0.50000499739E+01  0.50000500000E+01  0.51100000000E-03 0.  1.
     100001    1    1    2    0    0 -0.74158155445E-02  0.15603693841E-01 -0.14196229017E-01  0.50000500000E+01  0.50000000000E+01 0.  0.
     100001    1    1    2    0    0  0.74158155445E-02 -0.15603693841E-01  0.14196229017E-01  0.50000500000E+01  0.50000000000E+01 0.  1.
</event>
<event>
 4    1  0.4919875E-001  0.5000050E+01  0.7818608E-02  0.2136455E+00
        -11   -1    0    0    0    0  0.00000000000E+00  0.00000000000E+00  0.50000499739E+01  0.50000500000E+01  0.51100000000E-03 0.  1.
         11   -1    0    0    0    0 -0.00000000000E+00 -0.00000000000E+00 -0.50000499739E+01  0.50000500000E+01  0.51100000000E-03 0. -1.
     100001    1    1    2    0    0 -0.18058903103E-01  0.36695442287E-03  0.13181193540E-01  0.50000500000E+01  0.50000000000E+01 0.  0.
     100001    1    1    2    0    0  0.18058903103E-01 -0.36695442287E-03 -0.13181193540E-01  0.50000500000E+01  0.50000000000E+01 0.  1.
</event>
<event>
 4    1  0.4919875E-001  0.5000050E+01  0.7818608E-02  0.2136455E+00
        -11   -1    0    0    0    0  0.00000000000E+00  0.00000000000E+00  0.50000499739E+01  0.50000500000E+01  0.51100000000E-03 0. -1.
         11   -1    0    0    0    0 -0.00000000000E+00 -0.00000000000E+00 -0.50000499739E+01  0.50000500000E+01  0.51100000000E-03 0.  1.
     100001    1    1    2    0    0 -0.13669154032E-01 -0.11832329232E-01  0.13158750435E-01  0.50000500000E+01  0.50000000000E+01 0. -1.
     100001    1    1    2    0    0  0.13669154032E-01  0.11832329232E-01 -0.13158750435E-01  0.50000500000E+01  0.50000000000E+01 0.  1.
</event>
<event>
 4    1  0.4919875E-001  0.5000050E+01  0.7818608E-02  0.2136455E+00
        -11   -1    0    0    0    0  0.00000000000E+00  0.00000000000E+00  0.50000499739E+01  0.50000500000E+01  0.51100000000E-03 0.  1.
         11   -1    0    0    0    0 -0.00000000000E+00 -0.00000000000E+00 -0.50000499739E+01  0.50000500000E+01  0.51100000000E-03 0. -1.
     100001    1    1    2    0    0  0.21541403194E-01 -0.47737681860E-03 -0.59785081576E-02  0.50000500000E+01  0.50000000000E+01 0. -1.
     100001    1    1    2    0    0 -0.21541403194E-01  0.47737681860E-03  0.59785081576E-02  0.50000500000E+01  0.50000000000E+01 0.  1.
</event>
<event>
 4    1  0.4919875E-001  0.5000050E+01  0.7818608E-02  0.2136455E+00
        -11   -1    0    0    0    0  0.00000000000E+00  0.00000000000E+00  0.50000499739E+01  0.50000500000E+01  0.51100000000E-03 0. -1.
         11   -1    0    0    0    0 -0.00000000000E+00 -0.00000000000E+00 -0.50000499739E+01  0.50000500000E+01  0.51100000000E-03 0.  1.
     100001    1    1    2    0    0 -0.17500723251E-01 -0.98658430658E-02  0.98179593752E-02  0.50000500000E+01  0.50000000000E+01 0.  1.
     100001    1    1    2    0    0  0.17500723251E-01  0.98658430658E-02 -0.98179593752E-02  0.50000500000E+01  0.50000000000E+01 0. -1.
</event>
<event>
 4    1  0.4919875E-001  0.5000050E+01  0.7818608E-02  0.2136455E+00
        -11   -1    0    0    0    0  0.00000000000E+00  0.00000000000E+00  0.50000499739E+01  0.50000500000E+01  0.51100000000E-03 0.  1.
         11   -1    0    0    0    0 -0.00000000000E+00 -0.00000000000E+00 -0.50000499739E+01  0.50000500000E+01  0.51100000000E-03 0. -1.
     100001    1    1    2    0    0  0.21317998392E-01  0.12809565966E-02 -0.66260542363E-02  0.50000500000E+01  0.50000000000E+01 0. -1.
     100001    1    1    2    0    0 -0.21317998392E-01 -0.12809565966E-02  0.66260542363E-02  0.50000500000E+01  0.50000000000E+01 0.  1.
</event>
<event>
 4    1  0.4919875E-001  0.5000050E+01  0.7818608E-02  0.2136455E+00
        -11   -1    0    0    0    0  0.00000000000E+00  0.00000000000E+00  0.50000499739E+01  0.50000500000E+01  0.51100000000E-03 0. -1.
         11   -1    0    0    0    0 -0.00000000000E+00 -0.00000000000E+00 -0.50000499739E+01  0.50000500000E+01  0.51100000000E-03 0.  1.
     100001    1    1    2    0    0  0.76885341672E-02 -0.55624861399E-02  0.20247164994E-01  0.50000500000E+01  0.50000000000E+01 0.  0.
     100001    1    1    2    0    0 -0.76885341672E-02  0.55624861399E-02 -0.20247164994E-01  0.50000500000E+01  0.50000000000E+01 0.  0.
</event>
<event>
 4    1  0.4919875E-001  0.5000050E+01  0.7818608E-02  0.2136455E+00
        -11   -1    0    0    0    0  0.00000000000E+00  0.00000000000E+00  0.50000499739E+01  0.50000500000E+01  0.51100000000E-03 0.  1.
         11   -1    0    0    0    0 -0.00000000000E+00 -0.00000000000E+00 -0.50000499739E+01  0.50000500000E+01  0.51100000000E-03 0. -1.
     100001    1    1    2    0    0 -0.12439423762E-01  0.18550693778E-01  0.10653623071E-02  0.50000500000E+01  0.50000000000E+01 0.  1.
     100001    1    1    2    0    0  0.12439423762E-01 -0.18550693778E-01 -0.10653623071E-02  0.50000500000E+01  0.50000000000E+01 0. -1.
</event>
<event>
 4    1  0.4919875E-001  0.5000050E+01  0.7818608E-02  0.2136455E+00
        -11   -1    0    0    0    0  0.00000000000E+00  0.00000000000E+00  0.50000499739E+01  0.50000500000E+01  0.51100000000E-03 0.  1.
         11   -1    0    0    0    0 -0.00000000000E+00 -0.00000000000E+00 -0.50000499739E+01  0.50000500000E+01  0.51100000000E-03 0. -1.
     100001    1    1    2    0    0 -0.45594892559E-02 -0.10767436965E-01  0.19059796928E-01  0.50000500000E+01  0.50000000000E+01 0.  1.
     100001    1    1    2    0    0  0.45594892559E-02  0.10767436965E-01 -0.19059796928E-01  0.50000500000E+01  0.50000000000E+01 0. -1.
</event>
<event>
 4    1  0.4919875E-001  0.5000050E+01  0.7818608E-02  0.2136455E+00
        -11   -1    0    0    0    0  0.00000000000E+00  0.00000000000E+00  0.50000499739E+01  0.50000500000E+01  0.51100000000E-03 0. -1.
         11   -1    0    0    0    0 -0.00000000000E+00 -0.00000000000E+00 -0.50000499739E+01  0.50000500000E+01  0.51100000000E-03 0.  1.
     100001    1    1    2    0    0  0.21376015794E-01 -0.56894552126E-02  0.32708635164E-02  0.50000500000E+01  0.50000000000E+01 0.  1.
     100001    1    1    2    0    0 -0.21376015794E-01  0.56894552126E-02 -0.32708635164E-02  0.50000500000E+01  0.50000000000E+01 0.  0.
</event>
<event>
 4    1  0.4919875E-001  0.5000050E+01  0.7818608E-02  0.2136455E+00
        -11   -1    0    0    0    0  0.00000000000E+00  0.00000000000E+00  0.50000499739E+01  0.50000500000E+01  0.51100000000E-03 0.  1.
         11   -1    0    0    0    0 -0.00000000000E+00 -0.00000000000E+00 -0.50000499739E+01  0.50000500000E+01  0.51100000000E-03 0. -1.
     100001    1    1    2    0    0 -0.84237107111E-02 -0.10032586997E-02  0.20689056765E-01  0.50000500000E+01  0.50000000000E+01 0.  0.
     100001    1    1    2    0    0  0.84237107111E-02  0.10032586997E-02 -0.20689056765E-01  0.50000500000E+01  0.50000000000E+01 0.  0.
</event>
<event>
 4    1  0.4919875E-001  0.5000050E+01  0.7818608E-02  0.2136455E+00
        -11   -1    0    0    0    0  0.00000000000E+00  0.00000000000E+00  0.50000499739E+01  0.50000500000E+01  0.51100000000E-03 0.  1.
         11   -1    0    0    0    0 -0.00000000000E+00 -0.00000000000E+00 -0.50000499739E+01  0.50000500000E+01  0.51100000000E-03 0. -1.
     100001    1    1    2    0    0  0.22275125106E-01  0.12931089501E-02 -0.14660050361E-02  0.50000500000E+01  0.50000000000E+01 0.  0.
     100001    1    1    2    0    0 -0.22275125106E-01 -0.12931089501E-02  0.14660050361E-02  0.50000500000E+01  0.50000000000E+01 0. -1.
</event>
<event>
 4    1  0.4919875E-001  0.5000050E+01  0.7818608E-02  0.2136455E+00
        -11   -1    0    0    0    0  0.00000000000E+00  0.00000000000E+00  0.50000499739E+01  0.50000500000E+01  0.51100000000E-03 0.  1.
         11   -1    0    0    0    0 -0.00000000000E+00 -0.00000000000E+00 -0.50000499739E+01  0.50000500000E+01  0.51100000000E-03 0. -1.
     100001    1    1    2    0    0 -0.85822906107E-02  0.19666553837E-01  0.62907430448E-02  0.50000500000E+01  0.50000000000E+01 0.  1.
     100001    1    1    2    0    0  0.85822906107E-02 -0.19666553837E-01 -0.62907430448E-02  0.50000500000E+01  0.50000000000E+01 0. -1.
</event>
<event>
 4    1  0.4919875E-001  0.5000050E+01  0.7818608E-02  0.2136455E+00
        -11   -1    0    0    0    0  0.00000000000E+00  0.00000000000E+00  0.50000499739E+01  0.50000500000E+01  0.51100000000E-03 0.  1.
         11   -1    0    0    0    0 -0.00000000000E+00 -0.00000000000E+00 -0.50000499739E+01  0.50000500000E+01  0.51100000000E-03 0. -1.
     100001    1    1    2    0    0 -0.20924303477E-01  0.43049628382E-03 -0.78734171080E-02  0.50000500000E+01  0.50000000000E+01 0. -1.
     100001    1    1    2    0    0  0.20924303477E-01 -0.43049628382E-03  0.78734171080E-02  0.50000500000E+01  0.50000000000E+01 0. -1.
</event>
<event>
 4    1  0.4919875E-001  0.5000050E+01  0.7818608E-02  0.2136455E+00
        -11   -1    0    0    0    0  0.00000000000E+00  0.00000000000E+00  0.50000499739E+01  0.50000500000E+01  0.51100000000E-03 0.  1.
         11   -1    0    0    0    0 -0.00000000000E+00 -0.00000000000E+00 -0.50000499739E+01  0.50000500000E+01  0.51100000000E-03 0. -1.
     100001    1    1    2    0    0  0.90046440265E-02  0.18518857867E-01  0.87161223751E-02  0.50000500000E+01  0.50000000000E+01 0.  1.
     100001    1    1    2    0    0 -0.90046440265E-02 -0.18518857867E-01 -0.87161223751E-02  0.50000500000E+01  0.50000000000E+01 0. -1.
</event>
<event>
 4    1  0.4919875E-001  0.5000050E+01  0.7818608E-02  0.2136455E+00
        -11   -1    0    0    0    0  0.00000000000E+00  0.00000000000E+00  0.50000499739E+01  0.50000500000E+01  0.51100000000E-03 0.  1.
         11   -1    0    0    0    0 -0.00000000000E+00 -0.00000000000E+00 -0.50000499739E+01  0.50000500000E+01  0.51100000000E-03 0. -1.
     100001    1    1    2    0    0 -0.19691255106E-01 -0.52754517930E-02 -0.91883938048E-02  0.50000500000E+01  0.50000000000E+01 0.  0.
     100001    1    1    2    0    0  0.19691255106E-01  0.52754517930E-02  0.91883938048E-02  0.50000500000E+01  0.50000000000E+01 0. -1.
</event>
<event>
 4    1  0.4919875E-001  0.5000050E+01  0.7818608E-02  0.2136455E+00
        -11   -1    0    0    0    0  0.00000000000E+00  0.00000000000E+00  0.50000499739E+01  0.50000500000E+01  0.51100000000E-03 0.  1.
         11   -1    0    0    0    0 -0.00000000000E+00 -0.00000000000E+00 -0.50000499739E+01  0.50000500000E+01  0.51100000000E-03 0. -1.
     100001    1    1    2    0    0 -0.76486152226E-02 -0.19221471375E-01 -0.84874155876E-02  0.50000500000E+01  0.50000000000E+01 0.  1.
     100001    1    1    2    0    0  0.76486152226E-02  0.19221471375E-01  0.84874155876E-02  0.50000500000E+01  0.50000000000E+01 0. -1.
</event>
<event>
 4    1  0.4919875E-001  0.5000050E+01  0.7818608E-02  0.2136455E+00
        -11   -1    0    0    0    0  0.00000000000E+00  0.00000000000E+00  0.50000499739E+01  0.50000500000E+01  0.51100000000E-03 0. -1.
         11   -1    0    0    0    0 -0.00000000000E+00 -0.00000000000E+00 -0.50000499739E+01  0.50000500000E+01  0.51100000000E-03 0.  1.
     100001    1    1    2    0    0  0.10891198282E-01 -0.17580777185E-01 -0.85029743946E-02  0.50000500000E+01  0.50000000000E+01 0. -1.
     100001    1    1    2    0    0 -0.10891198282E-01  0.17580777185E-01  0.85029743946E-02  0.50000500000E+01  0.50000000000E+01 0.  1.
</event>
<event>
 4    1  0.4919875E-001  0.5000050E+01  0.7818608E-02  0.2136455E+00
        -11   -1    0    0    0    0  0.00000000000E+00  0.00000000000E+00  0.50000499739E+01  0.50000500000E+01  0.51100000000E-03 0.  1.
         11   -1    0    0    0    0 -0.00000000000E+00 -0.00000000000E+00 -0.50000499739E+01  0.50000500000E+01  0.51100000000E-03 0. -1.
     100001    1    1    2    0    0  0.64900722508E-02  0.35050128959E-02  0.21109153152E-01  0.50000500000E+01  0.50000000000E+01 0.  1.
     100001    1    1    2    0    0 -0.64900722508E-02 -0.35050128959E-02 -0.21109153152E-01  0.50000500000E+01  0.50000000000E+01 0.  0.
</event>
<event>
 4    1  0.4919875E-001  0.5000050E+01  0.7818608E-02  0.2136455E+00
        -11   -1    0    0    0    0  0.00000000000E+00  0.00000000000E+00  0.50000499739E+01  0.50000500000E+01  0.51100000000E-03 0. -1.
         11   -1    0    0    0    0 -0.00000000000E+00 -0.00000000000E+00 -0.50000499739E+01  0.50000500000E+01  0.51100000000E-03 0.  1.
     100001    1    1    2    0    0  0.18114964512E-01  0.76789433486E-02  0.10624706573E-01  0.50000500000E+01  0.50000000000E+01 0.  1.
     100001    1    1    2    0    0 -0.18114964512E-01 -0.76789433486E-02 -0.10624706573E-01  0.50000500000E+01  0.50000000000E+01 0.  0.
</event>
<event>
 4    1  0.4919875E-001  0.5000050E+01  0.7818608E-02  0.2136455E+00
        -11   -1    0    0    0    0  0.00000000000E+00  0.00000000000E+00  0.50000499739E+01  0.50000500000E+01  0.51100000000E-03 0. -1.
         11   -1    0    0    0    0 -0.00000000000E+00 -0.00000000000E+00 -0.50000499739E+01  0.50000500000E+01  0.51100000000E-03 0.  1.
     100001    1    1    2    0    0  0.21264087478E-01 -0.64831424602E-02  0.24103832859E-02  0.50000500000E+01  0.50000000000E+01 0. -1.
     100001    1    1    2    0    0 -0.21264087478E-01  0.64831424602E-02 -0.24103832859E-02  0.50000500000E+01  0.50000000000E+01 0.  1.
</event>
<event>
 4    1  0.4919875E-001  0.5000050E+01  0.7818608E-02  0.2136455E+00
        -11   -1    0    0    0    0  0.00000000000E+00  0.00000000000E+00  0.50000499739E+01  0.50000500000E+01  0.51100000000E-03 0.  1.
         11   -1    0    0    0    0 -0.00000000000E+00 -0.00000000000E+00 -0.50000499739E+01  0.50000500000E+01  0.51100000000E-03 0. -1.
     100001    1    1    2    0    0 -0.15305371242E-01  0.25430624895E-02  0.16102203089E-01  0.50000500000E+01  0.50000000000E+01 0.  1.
     100001    1    1    2    0    0  0.15305371242E-01 -0.25430624895E-02 -0.16102203089E-01  0.50000500000E+01  0.50000000000E+01 0. -1.
</event>
<event>
 4    1  0.4919875E-001  0.5000050E+01  0.7818608E-02  0.2136455E+00
        -11   -1    0    0    0    0  0.00000000000E+00  0.00000000000E+00  0.50000499739E+01  0.50000500000E+01  0.51100000000E-03 0. -1.
         11   -1    0    0    0    0 -0.00000000000E+00 -0.00000000000E+00 -0.50000499739E+01  0.50000500000E+01  0.51100000000E-03 0.  1.
     100001    1    1    2    0    0 -0.16586541870E-01 -0.10304102660E-02 -0.14960861722E-01  0.50000500000E+01  0.50000000000E+01 0.  0.
     100001    1    1    2    0    0  0.16586541870E-01  0.10304102660E-02  0.14960861722E-01  0.50000500000E+01  0.50000000000E+01 0.  0.
</event>
<event>
 4    1  0.4919875E-001  0.5000050E+01  0.7818608E-02  0.2136455E+00
        -11   -1    0    0    0    0  0.00000000000E+00  0.00000000000E+00  0.50000499739E+01  0.50000500000E+01  0.51100000000E-03 0. -1.
         11   -1    0    0    0    0 -0.00000000000E+00 -0.00000000000E+00 -0.50000499739E+01  0.50000500000E+01  0.51100000000E-03 0.  1.
     100001    1    1    2    0    0  0.16283958205E-01 -0.11380806414E-01 -0.10262185466E-01  0.50000500000E+01  0.50000000000E+01 0.  1.
     100001    1    1    2    0    0 -0.16283958205E-01  0.11380806414E-01  0.10262185466E-01  0.50000500000E+01  0.50000000000E+01 0. -1.
</event>
<event>
 4    1  0.4919875E-001  0.5000050E+01  0.7818608E-02  0.2136455E+00
        -11   -1    0    0    0    0  0.00000000000E+00  0.00000000000E+00  0.50000499739E+01  0.50000500000E+01  0.51100000000E-03 0. -1.
         11   -1    0    0    0    0 -0.00000000000E+00 -0.00000000000E+00 -0.50000499739E+01  0.50000500000E+01  0.51100000000E-03 0.  1.
     100001    1    1    2    0    0  0.16467353373E-01 -0.13794975842E-01 -0.62070455451E-02  0.50000500000E+01  0.50000000000E+01 0.  0.
     100001    1    1    2    0    0 -0.16467353373E-01  0.13794975842E-01  0.62070455451E-02  0.50000500000E+01  0.50000000000E+01 0.  1.
</event>
<event>
 4    1  0.4919875E-001  0.5000050E+01  0.7818608E-02  0.2136455E+00
        -11   -1    0    0    0    0  0.00000000000E+00  0.00000000000E+00  0.50000499739E+01  0.50000500000E+01  0.51100000000E-03 0.  1.
         11   -1    0    0    0    0 -0.00000000000E+00 -0.00000000000E+00 -0.50000499739E+01  0.50000500000E+01  0.51100000000E-03 0. -1.
     100001    1    1    2    0    0 -0.19811112737E-01 -0.76099739501E-02 -0.70434798637E-02  0.50000500000E+01  0.50000000000E+01 0.  0.
     100001    1    1    2    0    0  0.19811112737E-01  0.76099739501E-02  0.70434798637E-02  0.50000500000E+01  0.50000000000E+01 0.  0.
</event>
<event>
 4    1  0.4919875E-001  0.5000050E+01  0.7818608E-02  0.2136455E+00
        -11   -1    0    0    0    0  0.00000000000E+00  0.00000000000E+00  0.50000499739E+01  0.50000500000E+01  0.51100000000E-03 0.  1.
         11   -1    0    0    0    0 -0.00000000000E+00 -0.00000000000E+00 -0.50000499739E+01  0.50000500000E+01  0.51100000000E-03 0. -1.
     100001    1    1    2    0    0 -0.78165551100E-02  0.20640936562E-01  0.35854851882E-02  0.50000500000E+01  0.50000000000E+01 0.  1.
     100001    1    1    2    0    0  0.78165551100E-02 -0.20640936562E-01 -0.35854851882E-02  0.50000500000E+01  0.50000000000E+01 0. -1.
</event>
<event>
 4    1  0.4919875E-001  0.5000050E+01  0.7818608E-02  0.2136455E+00
        -11   -1    0    0    0    0  0.00000000000E+00  0.00000000000E+00  0.50000499739E+01  0.50000500000E+01  0.51100000000E-03 0.  1.
         11   -1    0    0    0    0 -0.00000000000E+00 -0.00000000000E+00 -0.50000499739E+01  0.50000500000E+01  0.51100000000E-03 0. -1.
     100001    1    1    2    0    0  0.21984611665E-01 -0.69697543855E-03  0.40241241497E-02  0.50000500000E+01  0.50000000000E+01 0. -1.
     100001    1    1    2    0    0 -0.21984611665E-01  0.69697543855E-03 -0.40241241497E-02  0.50000500000E+01  0.50000000000E+01 0. -1.
</event>
<event>
 4    1  0.4919875E-001  0.5000050E+01  0.7818608E-02  0.2136455E+00
        -11   -1    0    0    0    0  0.00000000000E+00  0.00000000000E+00  0.50000499739E+01  0.50000500000E+01  0.51100000000E-03 0.  1.
         11   -1    0    0    0    0 -0.00000000000E+00 -0.00000000000E+00 -0.50000499739E+01  0.50000500000E+01  0.51100000000E-03 0. -1.
     100001    1    1    2    0    0 -0.61501608749E-02 -0.19497714173E-01  0.90563327704E-02  0.50000500000E+01  0.50000000000E+01 0.  1.
     100001    1    1    2    0    0  0.61501608749E-02  0.19497714173E-01 -0.90563327704E-02  0.50000500000E+01  0.50000000000E+01 0. -1.
</event>
<event>
 4    1  0.4919875E-001  0.5000050E+01  0.7818608E-02  0.2136455E+00
        -11   -1    0    0    0    0  0.00000000000E+00  0.00000000000E+00  0.50000499739E+01  0.50000500000E+01  0.51100000000E-03 0.  1.
         11   -1    0    0    0    0 -0.00000000000E+00 -0.00000000000E+00 -0.50000499739E+01  0.50000500000E+01  0.51100000000E-03 0. -1.
     100001    1    1    2    0    0  0.13082280052E-01  0.37886707046E-02 -0.17734216164E-01  0.50000500000E+01  0.50000000000E+01 0. -1.
     100001    1    1    2    0    0 -0.13082280052E-01 -0.37886707046E-02  0.17734216164E-01  0.50000500000E+01  0.50000000000E+01 0.  0.
</event>
<event>
 4    1  0.4919875E-001  0.5000050E+01  0.7818608E-02  0.2136455E+00
        -11   -1    0    0    0    0  0.00000000000E+00  0.00000000000E+00  0.50000499739E+01  0.50000500000E+01  0.51100000000E-03 0.  1.
         11   -1    0    0    0    0 -0.00000000000E+00 -0.00000000000E+00 -0.50000499739E+01  0.50000500000E+01  0.51100000000E-03 0. -1.
     100001    1    1    2    0    0  0.14562099214E-01  0.12970085281E-01  0.10941876177E-01  0.50000500000E+01  0.50000000000E+01 0.  0.
     100001    1    1    2    0    0 -0.14562099214E-01 -0.12970085281E-01 -0.10941876177E-01  0.50000500000E+01  0.50000000000E+01 0.  1.
</event>
<event>
 4    1  0.4919875E-001  0.5000050E+01  0.7818608E-02  0.2136455E+00
        -11   -1    0    0    0    0  0.00000000000E+00  0.00000000000E+00  0.50000499739E+01  0.50000500000E+01  0.51100000000E-03 0. -1.
         11   -1    0    0    0    0 -0.00000000000E+00 -0.00000000000E+00 -0.50000499739E+01  0.50000500000E+01  0.51100000000E-03 0.  1.
     100001    1    1    2    0    0  0.13404252551E-01  0.17544722398E-01  0.35371216464E-02  0.50000500000E+01  0.50000000000E+01 0.  0.
     100001    1    1    2    0    0 -0.13404252551E-01 -0.17544722398E-01 -0.35371216464E-02  0.50000500000E+01  0.50000000000E+01 0. -1.
</event>
<event>
 4    1  0.4919875E-001  0.5000050E+01  0.7818608E-02  0.2136455E+00
        -11   -1    0    0    0    0  0.00000000000E+00  0.00000000000E+00  0.50000499739E+01  0.50000500000E+01  0.51100000000E-03 0. -1.
         11   -1    0    0    0    0 -0.00000000000E+00 -0.00000000000E+00 -0.50000499739E+01  0.50000500000E+01  0.51100000000E-03 0.  1.
     100001    1    1    2    0    0 -0.17575874993E-01  0.39463677203E-02  0.13248294232E-01  0.50000500000E+01  0.50000000000E+01 0.  0.
     100001    1    1    2    0    0  0.17575874993E-01 -0.39463677203E-02 -0.13248294232E-01  0.50000500000E+01  0.50000000000E+01 0.  0.
</event>
<event>
 4    1  0.4919875E-001  0.5000050E+01  0.7818608E-02  0.2136455E+00
        -11   -1    0    0    0    0  0.00000000000E+00  0.00000000000E+00  0.50000499739E+01  0.50000500000E+01  0.51100000000E-03 0.  1.
         11   -1    0    0    0    0 -0.00000000000E+00 -0.00000000000E+00 -0.50000499739E+01  0.50000500000E+01  0.51100000000E-03 0. -1.
     100001    1    1    2    0    0  0.37804767805E-02  0.59479794184E-02  0.21221028160E-01  0.50000500000E+01  0.50000000000E+01 0.  1.
     100001    1    1    2    0    0 -0.37804767805E-02 -0.59479794184E-02 -0.21221028160E-01  0.50000500000E+01  0.50000000000E+01 0.  0.
</event>
<event>
 4    1  0.4919875E-001  0.5000050E+01  0.7818608E-02  0.2136455E+00
        -11   -1    0    0    0    0  0.00000000000E+00  0.00000000000E+00  0.50000499739E+01  0.50000500000E+01  0.51100000000E-03 0. -1.
         11   -1    0    0    0    0 -0.00000000000E+00 -0.00000000000E+00 -0.50000499739E+01  0.50000500000E+01  0.51100000000E-03 0.  1.
     100001    1    1    2    0    0  0.18588776364E-02 -0.13912825084E-01  0.17406331380E-01  0.50000500000E+01  0.50000000000E+01 0. -1.
     100001    1    1    2    0    0 -0.18588776364E-02  0.13912825084E-01 -0.17406331380E-01  0.50000500000E+01  0.50000000000E+01 0.  1.
</event>
<event>
 4    1  0.4919875E-001  0.5000050E+01  0.7818608E-02  0.2136455E+00
        -11   -1    0    0    0    0  0.00000000000E+00  0.00000000000E+00  0.50000499739E+01  0.50000500000E+01  0.51100000000E-03 0.  1.
         11   -1    0    0    0    0 -0.00000000000E+00 -0.00000000000E+00 -0.50000499739E+01  0.50000500000E+01  0.51100000000E-03 0. -1.
     100001    1    1    2    0    0  0.57927753647E-02 -0.20401614503E-01  0.70866338434E-02  0.50000500000E+01  0.50000000000E+01 0.  0.
     100001    1    1    2    0    0 -0.57927753647E-02  0.20401614503E-01 -0.70866338434E-02  0.50000500000E+01  0.50000000000E+01 0.  1.
</event>
<event>
 4    1  0.4919875E-001  0.5000050E+01  0.7818608E-02  0.2136455E+00
        -11   -1    0    0    0    0  0.00000000000E+00  0.00000000000E+00  0.50000499739E+01  0.50000500000E+01  0.51100000000E-03 0.  1.
         11   -1    0    0    0    0 -0.00000000000E+00 -0.00000000000E+00 -0.50000499739E+01  0.50000500000E+01  0.51100000000E-03 0. -1.
     100001    1    1    2    0    0 -0.14429186173E-01  0.15864706513E-01  0.63334172170E-02  0.50000500000E+01  0.50000000000E+01 0.  0.
     100001    1    1    2    0    0  0.14429186173E-01 -0.15864706513E-01 -0.63334172170E-02  0.50000500000E+01  0.50000000000E+01 0. -1.
</event>
<event>
 4    1  0.4919875E-001  0.5000050E+01  0.7818608E-02  0.2136455E+00
        -11   -1    0    0    0    0  0.00000000000E+00  0.00000000000E+00  0.50000499739E+01  0.50000500000E+01  0.51100000000E-03 0.  1.
         11   -1    0    0    0    0 -0.00000000000E+00 -0.00000000000E+00 -0.50000499739E+01  0.50000500000E+01  0.51100000000E-03 0. -1.
     100001    1    1    2    0    0  0.34134230511E-02 -0.17953898003E-01  0.12884432062E-01  0.50000500000E+01  0.50000000000E+01 0. -1.
     100001    1    1    2    0    0 -0.34134230511E-02  0.17953898003E-01 -0.12884432062E-01  0.50000500000E+01  0.50000000000E+01 0. -1.
</event>
<event>
 4    1  0.4919875E-001  0.5000050E+01  0.7818608E-02  0.2136455E+00
        -11   -1    0    0    0    0  0.00000000000E+00  0.00000000000E+00  0.50000499739E+01  0.50000500000E+01  0.51100000000E-03 0.  1.
         11   -1    0    0    0    0 -0.00000000000E+00 -0.00000000000E+00 -0.50000499739E+01  0.50000500000E+01  0.51100000000E-03 0. -1.
     100001    1    1    2    0    0  0.13800586836E-01 -0.11660566443E-01  0.13174881146E-01  0.50000500000E+01  0.50000000000E+01 0.  0.
     100001    1    1    2    0    0 -0.13800586836E-01  0.11660566443E-01 -0.13174881146E-01  0.50000500000E+01  0.50000000000E+01 0.  0.
</event>
<event>
 4    1  0.4919875E-001  0.5000050E+01  0.7818608E-02  0.2136455E+00
        -11   -1    0    0    0    0  0.00000000000E+00  0.00000000000E+00  0.50000499739E+01  0.50000500000E+01  0.51100000000E-03 0.  1.
         11   -1    0    0    0    0 -0.00000000000E+00 -0.00000000000E+00 -0.50000499739E+01  0.50000500000E+01  0.51100000000E-03 0. -1.
     100001    1    1    2    0    0  0.16058837401E-02 -0.21106307960E-01  0.72074545925E-02  0.50000500000E+01  0.50000000000E+01 0.  0.
     100001    1    1    2    0    0 -0.16058837401E-02  0.21106307960E-01 -0.72074545925E-02  0.50000500000E+01  0.50000000000E+01 0.  0.
</event>
<event>
 4    1  0.4919875E-001  0.5000050E+01  0.7818608E-02  0.2136455E+00
        -11   -1    0    0    0    0  0.00000000000E+00  0.00000000000E+00  0.50000499739E+01  0.50000500000E+01  0.51100000000E-03 0.  1.
         11   -1    0    0    0    0 -0.00000000000E+00 -0.00000000000E+00 -0.50000499739E+01  0.50000500000E+01  0.51100000000E-03 0. -1.
     100001    1    1    2    0    0 -0.70923196644E-02 -0.18984298167E-01 -0.94497579275E-02  0.50000500000E+01  0.50000000000E+01 0.  0.
     100001    1    1    2    0    0  0.70923196644E-02  0.18984298167E-01  0.94497579275E-02  0.50000500000E+01  0.50000000000E+01 0. -1.
</event>
<event>
 4    1  0.4919875E-001  0.5000050E+01  0.7818608E-02  0.2136455E+00
        -11   -1    0    0    0    0  0.00000000000E+00  0.00000000000E+00  0.50000499739E+01  0.50000500000E+01  0.51100000000E-03 0. -1.
         11   -1    0    0    0    0 -0.00000000000E+00 -0.00000000000E+00 -0.50000499739E+01  0.50000500000E+01  0.51100000000E-03 0.  1.
     100001    1    1    2    0    0 -0.48459253589E-02  0.38920806174E-02 -0.21479553438E-01  0.50000500000E+01  0.50000000000E+01 0.  1.
     100001    1    1    2    0    0  0.48459253589E-02 -0.38920806174E-02  0.21479553438E-01  0.50000500000E+01  0.50000000000E+01 0.  0.
</event>
<event>
 4    1  0.4919875E-001  0.5000050E+01  0.7818608E-02  0.2136455E+00
        -11   -1    0    0    0    0  0.00000000000E+00  0.00000000000E+00  0.50000499739E+01  0.50000500000E+01  0.51100000000E-03 0.  1.
         11   -1    0    0    0    0 -0.00000000000E+00 -0.00000000000E+00 -0.50000499739E+01  0.50000500000E+01  0.51100000000E-03 0. -1.
     100001    1    1    2    0    0 -0.81068750064E-02 -0.20796609819E-01 -0.13349523135E-02  0.50000500000E+01  0.50000000000E+01 0.  0.
     100001    1    1    2    0    0  0.81068750064E-02  0.20796609819E-01  0.13349523135E-02  0.50000500000E+01  0.50000000000E+01 0.  0.
</event>
<event>
 4    1  0.4919875E-001  0.5000050E+01  0.7818608E-02  0.2136455E+00
        -11   -1    0    0    0    0  0.00000000000E+00  0.00000000000E+00  0.50000499739E+01  0.50000500000E+01  0.51100000000E-03 0. -1.
         11   -1    0    0    0    0 -0.00000000000E+00 -0.00000000000E+00 -0.50000499739E+01  0.50000500000E+01  0.51100000000E-03 0.  1.
     100001    1    1    2    0    0  0.18210895353E-01  0.88087250565E-02 -0.95274421186E-02  0.50000500000E+01  0.50000000000E+01 0.  0.
     100001    1    1    2    0    0 -0.18210895353E-01 -0.88087250565E-02  0.95274421186E-02  0.50000500000E+01  0.50000000000E+01 0.  0.
</event>
<event>
 4    1  0.4919875E-001  0.5000050E+01  0.7818608E-02  0.2136455E+00
        -11   -1    0    0    0    0  0.00000000000E+00  0.00000000000E+00  0.50000499739E+01  0.50000500000E+01  0.51100000000E-03 0.  1.
         11   -1    0    0    0    0 -0.00000000000E+00 -0.00000000000E+00 -0.50000499739E+01  0.50000500000E+01  0.51100000000E-03 0. -1.
     100001    1    1    2    0    0 -0.19869467943E-01 -0.97588522722E-02 -0.31577754788E-02  0.50000500000E+01  0.50000000000E+01 0. -1.
     100001    1    1    2    0    0  0.19869467943E-01  0.97588522722E-02  0.31577754788E-02  0.50000500000E+01  0.50000000000E+01 0.  1.
</event>
<event>
 4    1  0.4919875E-001  0.5000050E+01  0.7818608E-02  0.2136455E+00
        -11   -1    0    0    0    0  0.00000000000E+00  0.00000000000E+00  0.50000499739E+01  0.50000500000E+01  0.51100000000E-03 0. -1.
         11   -1    0    0    0    0 -0.00000000000E+00 -0.00000000000E+00 -0.50000499739E+01  0.50000500000E+01  0.51100000000E-03 0.  1.
     100001    1    1    2    0    0  0.71659939633E-02 -0.11758564711E-01 -0.17617808787E-01  0.50000500000E+01  0.50000000000E+01 0. -1.
     100001    1    1    2    0    0 -0.71659939633E-02  0.11758564711E-01  0.17617808787E-01  0.50000500000E+01  0.50000000000E+01 0. -1.
</event>
<event>
 4    1  0.4919875E-001  0.5000050E+01  0.7818608E-02  0.2136455E+00
        -11   -1    0    0    0    0  0.00000000000E+00  0.00000000000E+00  0.50000499739E+01  0.50000500000E+01  0.51100000000E-03 0.  1.
         11   -1    0    0    0    0 -0.00000000000E+00 -0.00000000000E+00 -0.50000499739E+01  0.50000500000E+01  0.51100000000E-03 0. -1.
     100001    1    1    2    0    0  0.18861366445E-01  0.93902599799E-02  0.74882824023E-02  0.50000500000E+01  0.50000000000E+01 0.  1.
     100001    1    1    2    0    0 -0.18861366445E-01 -0.93902599799E-02 -0.74882824023E-02  0.50000500000E+01  0.50000000000E+01 0. -1.
</event>
<event>
 4    1  0.4919875E-001  0.5000050E+01  0.7818608E-02  0.2136455E+00
        -11   -1    0    0    0    0  0.00000000000E+00  0.00000000000E+00  0.50000499739E+01  0.50000500000E+01  0.51100000000E-03 0. -1.
         11   -1    0    0    0    0 -0.00000000000E+00 -0.00000000000E+00 -0.50000499739E+01  0.50000500000E+01  0.51100000000E-03 0.  1.
     100001    1    1    2    0    0 -0.24551567365E-03  0.22277125460E-01  0.19162211002E-02  0.50000500000E+01  0.50000000000E+01 0. -1.
     100001    1    1    2    0    0  0.24551567365E-03 -0.22277125460E-01 -0.19162211002E-02  0.50000500000E+01  0.50000000000E+01 0.  1.
</event>
<event>
 4    1  0.4919875E-001  0.5000050E+01  0.7818608E-02  0.2136455E+00
        -11   -1    0    0    0    0  0.00000000000E+00  0.00000000000E+00  0.50000499739E+01  0.50000500000E+01  0.51100000000E-03 0. -1.
         11   -1    0    0    0    0 -0.00000000000E+00 -0.00000000000E+00 -0.50000499739E+01  0.50000500000E+01  0.51100000000E-03 0.  1.
     100001    1    1    2    0    0 -0.91391961925E-02 -0.52402747995E-03  0.20401053604E-01  0.50000500000E+01  0.50000000000E+01 0. -1.
     100001    1    1    2    0    0  0.91391961925E-02  0.52402747995E-03 -0.20401053604E-01  0.50000500000E+01  0.50000000000E+01 0.  0.
</event>
<event>
 4    1  0.4919875E-001  0.5000050E+01  0.7818608E-02  0.2136455E+00
        -11   -1    0    0    0    0  0.00000000000E+00  0.00000000000E+00  0.50000499739E+01  0.50000500000E+01  0.51100000000E-03 0.  1.
         11   -1    0    0    0    0 -0.00000000000E+00 -0.00000000000E+00 -0.50000499739E+01  0.50000500000E+01  0.51100000000E-03 0. -1.
     100001    1    1    2    0    0  0.48457866422E-02 -0.37394126739E-02 -0.21506688371E-01  0.50000500000E+01  0.50000000000E+01 0.  0.
     100001    1    1    2    0    0 -0.48457866422E-02  0.37394126739E-02  0.21506688371E-01  0.50000500000E+01  0.50000000000E+01 0.  0.
</event>
<event>
 4    1  0.4919875E-001  0.5000050E+01  0.7818608E-02  0.2136455E+00
        -11   -1    0    0    0    0  0.00000000000E+00  0.00000000000E+00  0.50000499739E+01  0.50000500000E+01  0.51100000000E-03 0. -1.
         11   -1    0    0    0    0 -0.00000000000E+00 -0.00000000000E+00 -0.50000499739E+01  0.50000500000E+01  0.51100000000E-03 0.  1.
     100001    1    1    2    0    0 -0.13578765057E-01 -0.12047081462E-01 -0.13057084964E-01  0.50000500000E+01  0.50000000000E+01 0.  1.
     100001    1    1    2    0    0  0.13578765057E-01  0.12047081462E-01  0.13057084964E-01  0.50000500000E+01  0.50000000000E+01 0. -1.
</event>
<event>
 4    1  0.4919875E-001  0.5000050E+01  0.7818608E-02  0.2136455E+00
        -11   -1    0    0    0    0  0.00000000000E+00  0.00000000000E+00  0.50000499739E+01  0.50000500000E+01  0.51100000000E-03 0.  1.
         11   -1    0    0    0    0 -0.00000000000E+00 -0.00000000000E+00 -0.50000499739E+01  0.50000500000E+01  0.51100000000E-03 0. -1.
     100001    1    1    2    0    0  0.22227750070E-01  0.21238617632E-02 -0.11911498881E-02  0.50000500000E+01  0.50000000000E+01 0.  1.
     100001    1    1    2    0    0 -0.22227750070E-01 -0.21238617632E-02  0.11911498881E-02  0.50000500000E+01  0.50000000000E+01 0.  0.
</event>
<event>
 4    1  0.4919875E-001  0.5000050E+01  0.7818608E-02  0.2136455E+00
        -11   -1    0    0    0    0  0.00000000000E+00  0.00000000000E+00  0.50000499739E+01  0.50000500000E+01  0.51100000000E-03 0.  1.
         11   -1    0    0    0    0 -0.00000000000E+00 -0.00000000000E+00 -0.50000499739E+01  0.50000500000E+01  0.51100000000E-03 0. -1.
     100001    1    1    2    0    0  0.57020043464E-02  0.54256237381E-02  0.20929697883E-01  0.50000500000E+01  0.50000000000E+01 0.  1.
     100001    1    1    2    0    0 -0.57020043464E-02 -0.54256237381E-02 -0.20929697883E-01  0.50000500000E+01  0.50000000000E+01 0.  0.
</event>
<event>
 4    1  0.4919875E-001  0.5000050E+01  0.7818608E-02  0.2136455E+00
        -11   -1    0    0    0    0  0.00000000000E+00  0.00000000000E+00  0.50000499739E+01  0.50000500000E+01  0.51100000000E-03 0.  1.
         11   -1    0    0    0    0 -0.00000000000E+00 -0.00000000000E+00 -0.50000499739E+01  0.50000500000E+01  0.51100000000E-03 0. -1.
     100001    1    1    2    0    0 -0.98513041500E-04  0.49130012017E-02 -0.21814105858E-01  0.50000500000E+01  0.50000000000E+01 0. -1.
     100001    1    1    2    0    0  0.98513041500E-04 -0.49130012017E-02  0.21814105858E-01  0.50000500000E+01  0.50000000000E+01 0.  0.
</event>
<event>
 4    1  0.4919875E-001  0.5000050E+01  0.7818608E-02  0.2136455E+00
        -11   -1    0    0    0    0  0.00000000000E+00  0.00000000000E+00  0.50000499739E+01  0.50000500000E+01  0.51100000000E-03 0. -1.
         11   -1    0    0    0    0 -0.00000000000E+00 -0.00000000000E+00 -0.50000499739E+01  0.50000500000E+01  0.51100000000E-03 0.  1.
     100001    1    1    2    0    0  0.21133619634E-02  0.18344378694E-01  0.12610312111E-01  0.50000500000E+01  0.50000000000E+01 0. -1.
     100001    1    1    2    0    0 -0.21133619634E-02 -0.18344378694E-01 -0.12610312111E-01  0.50000500000E+01  0.50000000000E+01 0.  1.
</event>
<event>
 4    1  0.4919875E-001  0.5000050E+01  0.7818608E-02  0.2136455E+00
        -11   -1    0    0    0    0  0.00000000000E+00  0.00000000000E+00  0.50000499739E+01  0.50000500000E+01  0.51100000000E-03 0.  1.
         11   -1    0    0    0    0 -0.00000000000E+00 -0.00000000000E+00 -0.50000499739E+01  0.50000500000E+01  0.51100000000E-03 0. -1.
     100001    1    1    2    0    0  0.61046107362E-02 -0.16845908371E-02  0.21445241464E-01  0.50000500000E+01  0.50000000000E+01 0.  1.
     100001    1    1    2    0    0 -0.61046107362E-02  0.16845908371E-02 -0.21445241464E-01  0.50000500000E+01  0.50000000000E+01 0.  0.
</event>
<event>
 4    1  0.4919875E-001  0.5000050E+01  0.7818608E-02  0.2136455E+00
        -11   -1    0    0    0    0  0.00000000000E+00  0.00000000000E+00  0.50000499739E+01  0.50000500000E+01  0.51100000000E-03 0.  1.
         11   -1    0    0    0    0 -0.00000000000E+00 -0.00000000000E+00 -0.50000499739E+01  0.50000500000E+01  0.51100000000E-03 0. -1.
     100001    1    1    2    0    0 -0.12302834882E-01 -0.92237294493E-02  0.16234702612E-01  0.50000500000E+01  0.50000000000E+01 0.  1.
     100001    1    1    2    0    0  0.12302834882E-01  0.92237294493E-02 -0.16234702612E-01  0.50000500000E+01  0.50000000000E+01 0. -1.
</event>
<event>
 4    1  0.4919875E-001  0.5000050E+01  0.7818608E-02  0.2136455E+00
        -11   -1    0    0    0    0  0.00000000000E+00  0.00000000000E+00  0.50000499739E+01  0.50000500000E+01  0.51100000000E-03 0.  1.
         11   -1    0    0    0    0 -0.00000000000E+00 -0.00000000000E+00 -0.50000499739E+01  0.50000500000E+01  0.51100000000E-03 0. -1.
     100001    1    1    2    0    0  0.16600738833E-01  0.10471696689E-01 -0.10712681207E-01  0.50000500000E+01  0.50000000000E+01 0. -1.
     100001    1    1    2    0    0 -0.16600738833E-01 -0.10471696689E-01  0.10712681207E-01  0.50000500000E+01  0.50000000000E+01 0.  1.
</event>
<event>
 4    1  0.4919875E-001  0.5000050E+01  0.7818608E-02  0.2136455E+00
        -11   -1    0    0    0    0  0.00000000000E+00  0.00000000000E+00  0.50000499739E+01  0.50000500000E+01  0.51100000000E-03 0. -1.
         11   -1    0    0    0    0 -0.00000000000E+00 -0.00000000000E+00 -0.50000499739E+01  0.50000500000E+01  0.51100000000E-03 0.  1.
     100001    1    1    2    0    0 -0.56984024249E-02 -0.32569682967E-02  0.21375754193E-01  0.50000500000E+01  0.50000000000E+01 0.  0.
     100001    1    1    2    0    0  0.56984024249E-02  0.32569682967E-02 -0.21375754193E-01  0.50000500000E+01  0.50000000000E+01 0.  0.
</event>
<event>
 4    1  0.4919875E-001  0.5000050E+01  0.7818608E-02  0.2136455E+00
        -11   -1    0    0    0    0  0.00000000000E+00  0.00000000000E+00  0.50000499739E+01  0.50000500000E+01  0.51100000000E-03 0.  1.
         11   -1    0    0    0    0 -0.00000000000E+00 -0.00000000000E+00 -0.50000499739E+01  0.50000500000E+01  0.51100000000E-03 0. -1.
     100001    1    1    2    0    0  0.17568484282E-01  0.12642193217E-01  0.56147850093E-02  0.50000500000E+01  0.50000000000E+01 0. -1.
     100001    1    1    2    0    0 -0.17568484282E-01 -0.12642193217E-01 -0.56147850093E-02  0.50000500000E+01  0.50000000000E+01 0.  1.
</event>
<event>
 4    1  0.4919875E-001  0.5000050E+01  0.7818608E-02  0.2136455E+00
        -11   -1    0    0    0    0  0.00000000000E+00  0.00000000000E+00  0.50000499739E+01  0.50000500000E+01  0.51100000000E-03 0. -1.
         11   -1    0    0    0    0 -0.00000000000E+00 -0.00000000000E+00 -0.50000499739E+01  0.50000500000E+01  0.51100000000E-03 0.  1.
     100001    1    1    2    0    0  0.20268849132E-01  0.94422298324E-02 -0.14335501617E-03  0.50000500000E+01  0.50000000000E+01 0. -1.
     100001    1    1    2    0    0 -0.20268849132E-01 -0.94422298324E-02  0.14335501617E-03  0.50000500000E+01  0.50000000000E+01 0.  1.
</event>
<event>
 4    1  0.1761756E+000  0.5000050E+01  0.7818608E-02  0.2136455E+00
        -11   -1    0    0    0    0  0.00000000000E+00  0.00000000000E+00  0.50000499739E+01  0.50000500000E+01  0.51100000000E-03 0.  1.
         11   -1    0    0    0    0 -0.00000000000E+00 -0.00000000000E+00 -0.50000499739E+01  0.50000500000E+01  0.51100000000E-03 0. -1.
     100001    1    1    2    0    0 -0.15214778979E-02  0.21663027291E-03 -0.22307861312E-01  0.50000500000E+01  0.50000000000E+01 0. -1.
     100001    1    1    2    0    0  0.15214778979E-02 -0.21663027291E-03  0.22307861312E-01  0.50000500000E+01  0.50000000000E+01 0.  0.
</event>
