<event>
 4    1  0.4897575E-001  0.5000050E+01  0.7818608E-02  0.2136455E+00
        -11   -1    0    0    0    0  0.00000000000E+00  0.00000000000E+00  0.50000499739E+01  0.50000500000E+01  0.51100000000E-03 0. -1.
         11   -1    0    0    0    0 -0.00000000000E+00 -0.00000000000E+00 -0.50000499739E+01  0.50000500000E+01  0.51100000000E-03 0.  1.
     100001    1    1    2    0    0  0.70899453497E-02  0.21206678167E-01  0.10943507730E-03  0.50000500000E+01  0.50000000000E+01 0. -1.
     100001    1    1    2    0    0 -0.70899453497E-02 -0.21206678167E-01 -0.10943507730E-03  0.50000500000E+01  0.50000000000E+01 0.  1.
</event>
<event>
 4    1  0.4897575E-001  0.5000050E+01  0.7818608E-02  0.2136455E+00
        -11   -1    0    0    0    0  0.00000000000E+00  0.00000000000E+00  0.50000499739E+01  0.50000500000E+01  0.51100000000E-03 0.  1.
         11   -1    0    0    0    0 -0.00000000000E+00 -0.00000000000E+00 -0.50000499739E+01  0.50000500000E+01  0.51100000000E-03 0. -1.
     100001    1    1    2    0    0  0.41153625728E-02 -0.57686529842E-02 -0.21208227970E-01  0.50000500000E+01  0.50000000000E+01 0.  0.
     100001    1    1    2    0    0 -0.41153625728E-02  0.57686529842E-02  0.21208227970E-01  0.50000500000E+01  0.50000000000E+01 0.  1.
</event>
<event>
 4    1  0.4897575E-001  0.5000050E+01  0.7818608E-02  0.2136455E+00
        -11   -1    0    0    0    0  0.00000000000E+00  0.00000000000E+00  0.50000499739E+01  0.50000500000E+01  0.51100000000E-03 0. -1.
         11   -1    0    0    0    0 -0.00000000000E+00 -0.00000000000E+00 -0.50000499739E+01  0.50000500000E+01  0.51100000000E-03 0.  1.
     100001    1    1    2    0    0  0.22192395997E-01 -0.24379426717E-02  0.12475958610E-02  0.50000500000E+01  0.50000000000E+01 0. -1.
     100001    1    1    2    0    0 -0.22192395997E-01  0.24379426717E-02 -0.12475958610E-02  0.50000500000E+01  0.50000000000E+01 0.  1.
</event>
<event>
 4    1  0.4897575E-001  0.5000050E+01  0.7818608E-02  0.2136455E+00
        -11   -1    0    0    0    0  0.00000000000E+00  0.00000000000E+00  0.50000499739E+01  0.50000500000E+01  0.51100000000E-03 0. -1.
         11   -1    0    0    0    0 -0.00000000000E+00 -0.00000000000E+00 -0.50000499739E+01  0.50000500000E+01  0.51100000000E-03 0.  1.
     100001    1    1    2    0    0 -0.71813429995E-02  0.15118668173E-01 -0.14827565053E-01  0.50000500000E+01  0.50000000000E+01 0.  0.
     100001    1    1    2    0    0  0.71813429995E-02 -0.15118668173E-01  0.14827565053E-01  0.50000500000E+01  0.50000000000E+01 0.  0.
</event>
<event>
 4    1  0.4897575E-001  0.5000050E+01  0.7818608E-02  0.2136455E+00
        -11   -1    0    0    0    0  0.00000000000E+00  0.00000000000E+00  0.50000499739E+01  0.50000500000E+01  0.51100000000E-03 0. -1.
         11   -1    0    0    0    0 -0.00000000000E+00 -0.00000000000E+00 -0.50000499739E+01  0.50000500000E+01  0.51100000000E-03 0.  1.
     100001    1    1    2    0    0  0.14934673649E-01 -0.14891324214E-01  0.74301067390E-02  0.50000500000E+01  0.50000000000E+01 0. -1.
     100001    1    1    2    0    0 -0.14934673649E-01  0.14891324214E-01 -0.74301067390E-02  0.50000500000E+01  0.50000000000E+01 0.  1.
</event>
<event>
 4    1  0.4897575E-001  0.5000050E+01  0.7818608E-02  0.2136455E+00
        -11   -1    0    0    0    0  0.00000000000E+00  0.00000000000E+00  0.50000499739E+01  0.50000500000E+01  0.51100000000E-03 0.  1.
         11   -1    0    0    0    0 -0.00000000000E+00 -0.00000000000E+00 -0.50000499739E+01  0.50000500000E+01  0.51100000000E-03 0. -1.
     100001    1    1    2    0    0  0.86397692261E-03  0.22326969397E-01  0.87320181041E-03  0.50000500000E+01  0.50000000000E+01 0.  0.
     100001    1    1    2    0    0 -0.86397692261E-03 -0.22326969397E-01 -0.87320181041E-03  0.50000500000E+01  0.50000000000E+01 0.  1.
</event>
<event>
 4    1  0.4897575E-001  0.5000050E+01  0.7818608E-02  0.2136455E+00
        -11   -1    0    0    0    0  0.00000000000E+00  0.00000000000E+00  0.50000499739E+01  0.50000500000E+01  0.51100000000E-03 0.  1.
         11   -1    0    0    0    0 -0.00000000000E+00 -0.00000000000E+00 -0.50000499739E+01  0.50000500000E+01  0.51100000000E-03 0. -1.
     100001    1    1    2    0    0  0.77339828959E-02 -0.20655809782E-01 -0.36777072781E-02  0.50000500000E+01  0.50000000000E+01 0.  1.
     100001    1    1    2    0    0 -0.77339828959E-02  0.20655809782E-01  0.36777072781E-02  0.50000500000E+01  0.50000000000E+01 0.  0.
</event>
<event>
 4    1  0.4897575E-001  0.5000050E+01  0.7818608E-02  0.2136455E+00
        -11   -1    0    0    0    0  0.00000000000E+00  0.00000000000E+00  0.50000499739E+01  0.50000500000E+01  0.51100000000E-03 0. -1.
         11   -1    0    0    0    0 -0.00000000000E+00 -0.00000000000E+00 -0.50000499739E+01  0.50000500000E+01  0.51100000000E-03 0.  1.
     100001    1    1    2    0    0  0.13461984166E-01 -0.17085200865E-01  0.51839554093E-02  0.50000500000E+01  0.50000000000E+01 0.  1.
     100001    1    1    2    0    0 -0.13461984166E-01  0.17085200865E-01 -0.51839554093E-02  0.50000500000E+01  0.50000000000E+01 0.  0.
</event>
<event>
 4    1  0.4897575E-001  0.5000050E+01  0.7818608E-02  0.2136455E+00
        -11   -1    0    0    0    0  0.00000000000E+00  0.00000000000E+00  0.50000499739E+01  0.50000500000E+01  0.51100000000E-03 0. -1.
         11   -1    0    0    0    0 -0.00000000000E+00 -0.00000000000E+00 -0.50000499739E+01  0.50000500000E+01  0.51100000000E-03 0.  1.
     100001    1    1    2    0    0 -0.17695769768E-01  0.13446113925E-01 -0.24625703293E-02  0.50000500000E+01  0.50000000000E+01 0.  0.
     100001    1    1    2    0    0  0.17695769768E-01 -0.13446113925E-01  0.24625703293E-02  0.50000500000E+01  0.50000000000E+01 0.  1.
</event>
<event>
 4    1  0.4897575E-001  0.5000050E+01  0.7818608E-02  0.2136455E+00
        -11   -1    0    0    0    0  0.00000000000E+00  0.00000000000E+00  0.50000499739E+01  0.50000500000E+01  0.51100000000E-03 0.  1.
         11   -1    0    0    0    0 -0.00000000000E+00 -0.00000000000E+00 -0.50000499739E+01  0.50000500000E+01  0.51100000000E-03 0. -1.
     100001    1    1    2    0    0  0.11444455019E-01 -0.91457792798E-02  0.16893243344E-01  0.50000500000E+01  0.50000000000E+01 0.  1.
     100001    1    1    2    0    0 -0.11444455019E-01  0.91457792798E-02 -0.16893243344E-01  0.50000500000E+01  0.50000000000E+01 0.  0.
</event>
<event>
 4    1  0.4897575E-001  0.5000050E+01  0.7818608E-02  0.2136455E+00
        -11   -1    0    0    0    0  0.00000000000E+00  0.00000000000E+00  0.50000499739E+01  0.50000500000E+01  0.51100000000E-03 0. -1.
         11   -1    0    0    0    0 -0.00000000000E+00 -0.00000000000E+00 -0.50000499739E+01  0.50000500000E+01  0.51100000000E-03 0.  1.
     100001    1    1    2    0    0  0.19795503906E-01 -0.89030532841E-02  0.53736549311E-02  0.50000500000E+01  0.50000000000E+01 0.  1.
     100001    1    1    2    0    0 -0.19795503906E-01  0.89030532841E-02 -0.53736549311E-02  0.50000500000E+01  0.50000000000E+01 0. -1.
</event>
<event>
 4    1  0.4897575E-001  0.5000050E+01  0.7818608E-02  0.2136455E+00
        -11   -1    0    0    0    0  0.00000000000E+00  0.00000000000E+00  0.50000499739E+01  0.50000500000E+01  0.51100000000E-03 0.  1.
         11   -1    0    0    0    0 -0.00000000000E+00 -0.00000000000E+00 -0.50000499739E+01  0.50000500000E+01  0.51100000000E-03 0. -1.
     100001    1    1    2    0    0  0.13310371094E-01 -0.63055254553E-02  0.16824888412E-01  0.50000500000E+01  0.50000000000E+01 0.  0.
     100001    1    1    2    0    0 -0.13310371094E-01  0.63055254553E-02 -0.16824888412E-01  0.50000500000E+01  0.50000000000E+01 0.  0.
</event>
<event>
 4    1  0.4897575E-001  0.5000050E+01  0.7818608E-02  0.2136455E+00
        -11   -1    0    0    0    0  0.00000000000E+00  0.00000000000E+00  0.50000499739E+01  0.50000500000E+01  0.51100000000E-03 0.  1.
         11   -1    0    0    0    0 -0.00000000000E+00 -0.00000000000E+00 -0.50000499739E+01  0.50000500000E+01  0.51100000000E-03 0. -1.
     100001    1    1    2    0    0 -0.55215091044E-02  0.20134562344E-01  0.80071740609E-02  0.50000500000E+01  0.50000000000E+01 0.  0.
     100001    1    1    2    0    0  0.55215091044E-02 -0.20134562344E-01 -0.80071740609E-02  0.50000500000E+01  0.50000000000E+01 0.  1.
</event>
<event>
 4    1  0.4897575E-001  0.5000050E+01  0.7818608E-02  0.2136455E+00
        -11   -1    0    0    0    0  0.00000000000E+00  0.00000000000E+00  0.50000499739E+01  0.50000500000E+01  0.51100000000E-03 0. -1.
         11   -1    0    0    0    0 -0.00000000000E+00 -0.00000000000E+00 -0.50000499739E+01  0.50000500000E+01  0.51100000000E-03 0.  1.
     100001    1    1    2    0    0  0.28095744512E-02 -0.19414528122E-01 -0.10732422335E-01  0.50000500000E+01  0.50000000000E+01 0. -1.
     100001    1    1    2    0    0 -0.28095744512E-02  0.19414528122E-01  0.10732422335E-01  0.50000500000E+01  0.50000000000E+01 0.  0.
</event>
<event>
 4    1  0.4897575E-001  0.5000050E+01  0.7818608E-02  0.2136455E+00
        -11   -1    0    0    0    0  0.00000000000E+00  0.00000000000E+00  0.50000499739E+01  0.50000500000E+01  0.51100000000E-03 0.  1.
         11   -1    0    0    0    0 -0.00000000000E+00 -0.00000000000E+00 -0.50000499739E+01  0.50000500000E+01  0.51100000000E-03 0. -1.
     100001    1    1    2    0    0 -0.13545769181E-02 -0.16772097179E-01 -0.14726315819E-01  0.50000500000E+01  0.50000000000E+01 0. -1.
     100001    1    1    2    0    0  0.13545769181E-02  0.16772097179E-01  0.14726315819E-01  0.50000500000E+01  0.50000000000E+01 0.  1.
</event>
<event>
 4    1  0.4897575E-001  0.5000050E+01  0.7818608E-02  0.2136455E+00
        -11   -1    0    0    0    0  0.00000000000E+00  0.00000000000E+00  0.50000499739E+01  0.50000500000E+01  0.51100000000E-03 0.  1.
         11   -1    0    0    0    0 -0.00000000000E+00 -0.00000000000E+00 -0.50000499739E+01  0.50000500000E+01  0.51100000000E-03 0. -1.
     100001    1    1    2    0    0 -0.37491557338E-02  0.19740197341E-01 -0.98117755886E-02  0.50000500000E+01  0.50000000000E+01 0.  0.
     100001    1    1    2    0    0  0.37491557338E-02 -0.19740197341E-01  0.98117755886E-02  0.50000500000E+01  0.50000000000E+01 0. -1.
</event>
<event>
 4    1  0.4897575E-001  0.5000050E+01  0.7818608E-02  0.2136455E+00
        -11   -1    0    0    0    0  0.00000000000E+00  0.00000000000E+00  0.50000499739E+01  0.50000500000E+01  0.51100000000E-03 0.  1.
         11   -1    0    0    0    0 -0.00000000000E+00 -0.00000000000E+00 -0.50000499739E+01  0.50000500000E+01  0.51100000000E-03 0. -1.
     100001    1    1    2    0    0 -0.12417085548E-01 -0.12274649568E-01 -0.13969662289E-01  0.50000500000E+01  0.50000000000E+01 0. -1.
     100001    1    1    2    0    0  0.12417085548E-01  0.12274649568E-01  0.13969662289E-01  0.50000500000E+01  0.50000000000E+01 0.  1.
</event>
<event>
 4    1  0.4897575E-001  0.5000050E+01  0.7818608E-02  0.2136455E+00
        -11   -1    0    0    0    0  0.00000000000E+00  0.00000000000E+00  0.50000499739E+01  0.50000500000E+01  0.51100000000E-03 0. -1.
         11   -1    0    0    0    0 -0.00000000000E+00 -0.00000000000E+00 -0.50000499739E+01  0.50000500000E+01  0.51100000000E-03 0.  1.
     100001    1    1    2    0    0 -0.24966038833E-02 -0.18187948539E-01  0.12765891939E-01  0.50000500000E+01  0.50000000000E+01 0.  1.
     100001    1    1    2    0    0  0.24966038833E-02  0.18187948539E-01 -0.12765891939E-01  0.50000500000E+01  0.50000000000E+01 0.  0.
</event>
<event>
 4    1  0.4897575E-001  0.5000050E+01  0.7818608E-02  0.2136455E+00
        -11   -1    0    0    0    0  0.00000000000E+00  0.00000000000E+00  0.50000499739E+01  0.50000500000E+01  0.51100000000E-03 0. -1.
         11   -1    0    0    0    0 -0.00000000000E+00 -0.00000000000E+00 -0.50000499739E+01  0.50000500000E+01  0.51100000000E-03 0.  1.
     100001    1    1    2    0    0 -0.33311262401E-02 -0.21447876183E-01  0.53753795423E-02  0.50000500000E+01  0.50000000000E+01 0. -1.
     100001    1    1    2    0    0  0.33311262401E-02  0.21447876183E-01 -0.53753795423E-02  0.50000500000E+01  0.50000000000E+01 0.  0.
</event>
<event>
 4    1  0.4897575E-001  0.5000050E+01  0.7818608E-02  0.2136455E+00
        -11   -1    0    0    0    0  0.00000000000E+00  0.00000000000E+00  0.50000499739E+01  0.50000500000E+01  0.51100000000E-03 0.  1.
         11   -1    0    0    0    0 -0.00000000000E+00 -0.00000000000E+00 -0.50000499739E+01  0.50000500000E+01  0.51100000000E-03 0. -1.
     100001    1    1    2    0    0  0.37026203552E-02  0.94987666532E-02  0.19901420416E-01  0.50000500000E+01  0.50000000000E+01 0.  1.
     100001    1    1    2    0    0 -0.37026203552E-02 -0.94987666532E-02 -0.19901420416E-01  0.50000500000E+01  0.50000000000E+01 0.  0.
</event>
<event>
 4    1  0.4897575E-001  0.5000050E+01  0.7818608E-02  0.2136455E+00
        -11   -1    0    0    0    0  0.00000000000E+00  0.00000000000E+00  0.50000499739E+01  0.50000500000E+01  0.51100000000E-03 0.  1.
         11   -1    0    0    0    0 -0.00000000000E+00 -0.00000000000E+00 -0.50000499739E+01  0.50000500000E+01  0.51100000000E-03 0. -1.
     100001    1    1    2    0    0  0.20563129386E-01 -0.40021831289E-02  0.78193823326E-02  0.50000500000E+01  0.50000000000E+01 0.  1.
     100001    1    1    2    0    0 -0.20563129386E-01  0.40021831289E-02 -0.78193823326E-02  0.50000500000E+01  0.50000000000E+01 0. -1.
</event>
<event>
 4    1  0.4897575E-001  0.5000050E+01  0.7818608E-02  0.2136455E+00
        -11   -1    0    0    0    0  0.00000000000E+00  0.00000000000E+00  0.50000499739E+01  0.50000500000E+01  0.51100000000E-03 0. -1.
         11   -1    0    0    0    0 -0.00000000000E+00 -0.00000000000E+00 -0.50000499739E+01  0.50000500000E+01  0.51100000000E-03 0.  1.
     100001    1    1    2    0    0  0.63512096631E-02  0.83429570696E-02  0.19749929193E-01  0.50000500000E+01  0.50000000000E+01 0.  0.
     100001    1    1    2    0    0 -0.63512096631E-02 -0.83429570696E-02 -0.19749929193E-01  0.50000500000E+01  0.50000000000E+01 0.  0.
</event>
<event>
 4    1  0.4897575E-001  0.5000050E+01  0.7818608E-02  0.2136455E+00
        -11   -1    0    0    0    0  0.00000000000E+00  0.00000000000E+00  0.50000499739E+01  0.50000500000E+01  0.51100000000E-03 0. -1.
         11   -1    0    0    0    0 -0.00000000000E+00 -0.00000000000E+00 -0.50000499739E+01  0.50000500000E+01  0.51100000000E-03 0.  1.
     100001    1    1    2    0    0 -0.31927957318E-02  0.15942588089E-01 -0.15350649512E-01  0.50000500000E+01  0.50000000000E+01 0.  1.
     100001    1    1    2    0    0  0.31927957318E-02 -0.15942588089E-01  0.15350649512E-01  0.50000500000E+01  0.50000000000E+01 0. -1.
</event>
<event>
 4    1  0.4897575E-001  0.5000050E+01  0.7818608E-02  0.2136455E+00
        -11   -1    0    0    0    0  0.00000000000E+00  0.00000000000E+00  0.50000499739E+01  0.50000500000E+01  0.51100000000E-03 0.  1.
         11   -1    0    0    0    0 -0.00000000000E+00 -0.00000000000E+00 -0.50000499739E+01  0.50000500000E+01  0.51100000000E-03 0. -1.
     100001    1    1    2    0    0 -0.74655595992E-02 -0.21024284001E-01 -0.14991337835E-02  0.50000500000E+01  0.50000000000E+01 0. -1.
     100001    1    1    2    0    0  0.74655595992E-02  0.21024284001E-01  0.14991337835E-02  0.50000500000E+01  0.50000000000E+01 0.  1.
</event>
<event>
 4    1  0.4897575E-001  0.5000050E+01  0.7818608E-02  0.2136455E+00
        -11   -1    0    0    0    0  0.00000000000E+00  0.00000000000E+00  0.50000499739E+01  0.50000500000E+01  0.51100000000E-03 0.  1.
         11   -1    0    0    0    0 -0.00000000000E+00 -0.00000000000E+00 -0.50000499739E+01  0.50000500000E+01  0.51100000000E-03 0. -1.
     100001    1    1    2    0    0  0.99281746869E-02 -0.15696449434E-01  0.12452121207E-01  0.50000500000E+01  0.50000000000E+01 0.  1.
     100001    1    1    2    0    0 -0.99281746869E-02  0.15696449434E-01 -0.12452121207E-01  0.50000500000E+01  0.50000000000E+01 0. -1.
</event>
<event>
 4    1  0.4897575E-001  0.5000050E+01  0.7818608E-02  0.2136455E+00
        -11   -1    0    0    0    0  0.00000000000E+00  0.00000000000E+00  0.50000499739E+01  0.50000500000E+01  0.51100000000E-03 0. -1.
         11   -1    0    0    0    0 -0.00000000000E+00 -0.00000000000E+00 -0.50000499739E+01  0.50000500000E+01  0.51100000000E-03 0.  1.
     100001    1    1    2    0    0  0.13140475766E-01  0.14420082763E-01  0.10926646776E-01  0.50000500000E+01  0.50000000000E+01 0. -1.
     100001    1    1    2    0    0 -0.13140475766E-01 -0.14420082763E-01 -0.10926646776E-01  0.50000500000E+01  0.50000000000E+01 0.  1.
</event>
<event>
 4    1  0.4897575E-001  0.5000050E+01  0.7818608E-02  0.2136455E+00
        -11   -1    0    0    0    0  0.00000000000E+00  0.00000000000E+00  0.50000499739E+01  0.50000500000E+01  0.51100000000E-03 0.  1.
         11   -1    0    0    0    0 -0.00000000000E+00 -0.00000000000E+00 -0.50000499739E+01  0.50000500000E+01  0.51100000000E-03 0. -1.
     100001    1    1    2    0    0  0.16185258031E-01  0.31866183281E-02 -0.15095873148E-01  0.50000500000E+01  0.50000000000E+01 0. -1.
     100001    1    1    2    0    0 -0.16185258031E-01 -0.31866183281E-02  0.15095873148E-01  0.50000500000E+01  0.50000000000E+01 0.  1.
</event>
<event>
 4    1  0.4897575E-001  0.5000050E+01  0.7818608E-02  0.2136455E+00
        -11   -1    0    0    0    0  0.00000000000E+00  0.00000000000E+00  0.50000499739E+01  0.50000500000E+01  0.51100000000E-03 0.  1.
         11   -1    0    0    0    0 -0.00000000000E+00 -0.00000000000E+00 -0.50000499739E+01  0.50000500000E+01  0.51100000000E-03 0. -1.
     100001    1    1    2    0    0 -0.11725799978E-01  0.18618306786E-01  0.39833110953E-02  0.50000500000E+01  0.50000000000E+01 0.  0.
     100001    1    1    2    0    0  0.11725799978E-01 -0.18618306786E-01 -0.39833110953E-02  0.50000500000E+01  0.50000000000E+01 0.  1.
</event>
<event>
 4    1  0.4897575E-001  0.5000050E+01  0.7818608E-02  0.2136455E+00
        -11   -1    0    0    0    0  0.00000000000E+00  0.00000000000E+00  0.50000499739E+01  0.50000500000E+01  0.51100000000E-03 0. -1.
         11   -1    0    0    0    0 -0.00000000000E+00 -0.00000000000E+00 -0.50000499739E+01  0.50000500000E+01  0.51100000000E-03 0.  1.
     100001    1    1    2    0    0 -0.45962012916E-02 -0.17997081863E-01 -0.12449195882E-01  0.50000500000E+01  0.50000000000E+01 0.  1.
     100001    1    1    2    0    0  0.45962012916E-02  0.17997081863E-01  0.12449195882E-01  0.50000500000E+01  0.50000000000E+01 0. -1.
</event>
<event>
 4    1  0.4897575E-001  0.5000050E+01  0.7818608E-02  0.2136455E+00
        -11   -1    0    0    0    0  0.00000000000E+00  0.00000000000E+00  0.50000499739E+01  0.50000500000E+01  0.51100000000E-03 0.  1.
         11   -1    0    0    0    0 -0.00000000000E+00 -0.00000000000E+00 -0.50000499739E+01  0.50000500000E+01  0.51100000000E-03 0. -1.
     100001    1    1    2    0    0 -0.15244200015E-01 -0.11777687011E-01 -0.11353543701E-01  0.50000500000E+01  0.50000000000E+01 0.  1.
     100001    1    1    2    0    0  0.15244200015E-01  0.11777687011E-01  0.11353543701E-01  0.50000500000E+01  0.50000000000E+01 0.  0.
</event>
<event>
 4    1  0.4897575E-001  0.5000050E+01  0.7818608E-02  0.2136455E+00
        -11   -1    0    0    0    0  0.00000000000E+00  0.00000000000E+00  0.50000499739E+01  0.50000500000E+01  0.51100000000E-03 0. -1.
         11   -1    0    0    0    0 -0.00000000000E+00 -0.00000000000E+00 -0.50000499739E+01  0.50000500000E+01  0.51100000000E-03 0.  1.
     100001    1    1    2    0    0 -0.12169779816E-01 -0.11870937779E-01  0.14525143561E-01  0.50000500000E+01  0.50000000000E+01 0.  0.
     100001    1    1    2    0    0  0.12169779816E-01  0.11870937779E-01 -0.14525143561E-01  0.50000500000E+01  0.50000000000E+01 0.  0.
</event>
<event>
 4    1  0.4897575E-001  0.5000050E+01  0.7818608E-02  0.2136455E+00
        -11   -1    0    0    0    0  0.00000000000E+00  0.00000000000E+00  0.50000499739E+01  0.50000500000E+01  0.51100000000E-03 0.  1.
         11   -1    0    0    0    0 -0.00000000000E+00 -0.00000000000E+00 -0.50000499739E+01  0.50000500000E+01  0.51100000000E-03 0. -1.
     100001    1    1    2    0    0 -0.84428023160E-02  0.33584086666E-02 -0.20431414055E-01  0.50000500000E+01  0.50000000000E+01 0. -1.
     100001    1    1    2    0    0  0.84428023160E-02 -0.33584086666E-02  0.20431414055E-01  0.50000500000E+01  0.50000000000E+01 0.  1.
</event>
<event>
 4    1  0.4897575E-001  0.5000050E+01  0.7818608E-02  0.2136455E+00
        -11   -1    0    0    0    0  0.00000000000E+00  0.00000000000E+00  0.50000499739E+01  0.50000500000E+01  0.51100000000E-03 0.  1.
         11   -1    0    0    0    0 -0.00000000000E+00 -0.00000000000E+00 -0.50000499739E+01  0.50000500000E+01  0.51100000000E-03 0. -1.
     100001    1    1    2    0    0  0.97258487441E-02 -0.17268278582E-01 -0.10354560397E-01  0.50000500000E+01  0.50000000000E+01 0. -1.
     100001    1    1    2    0    0 -0.97258487441E-02  0.17268278582E-01  0.10354560397E-01  0.50000500000E+01  0.50000000000E+01 0.  1.
</event>
<event>
 4    1  0.4897575E-001  0.5000050E+01  0.7818608E-02  0.2136455E+00
        -11   -1    0    0    0    0  0.00000000000E+00  0.00000000000E+00  0.50000499739E+01  0.50000500000E+01  0.51100000000E-03 0. -1.
         11   -1    0    0    0    0 -0.00000000000E+00 -0.00000000000E+00 -0.50000499739E+01  0.50000500000E+01  0.51100000000E-03 0.  1.
     100001    1    1    2    0    0  0.10544725608E-01 -0.16645022154E-01 -0.10571400067E-01  0.50000500000E+01  0.50000000000E+01 0.  1.
     100001    1    1    2    0    0 -0.10544725608E-01  0.16645022154E-01  0.10571400067E-01  0.50000500000E+01  0.50000000000E+01 0. -1.
</event>
<event>
 4    1  0.4897575E-001  0.5000050E+01  0.7818608E-02  0.2136455E+00
        -11   -1    0    0    0    0  0.00000000000E+00  0.00000000000E+00  0.50000499739E+01  0.50000500000E+01  0.51100000000E-03 0. -1.
         11   -1    0    0    0    0 -0.00000000000E+00 -0.00000000000E+00 -0.50000499739E+01  0.50000500000E+01  0.51100000000E-03 0.  1.
     100001    1    1    2    0    0  0.37236250761E-02  0.22048374868E-01  0.79258870627E-04  0.50000500000E+01  0.50000000000E+01 0.  1.
     100001    1    1    2    0    0 -0.37236250761E-02 -0.22048374868E-01 -0.79258870627E-04  0.50000500000E+01  0.50000000000E+01 0.  0.
</event>
<event>
 4    1  0.4897575E-001  0.5000050E+01  0.7818608E-02  0.2136455E+00
        -11   -1    0    0    0    0  0.00000000000E+00  0.00000000000E+00  0.50000499739E+01  0.50000500000E+01  0.51100000000E-03 0.  1.
         11   -1    0    0    0    0 -0.00000000000E+00 -0.00000000000E+00 -0.50000499739E+01  0.50000500000E+01  0.51100000000E-03 0. -1.
     100001    1    1    2    0    0  0.23134601669E-02  0.42275747837E-02 -0.21835247045E-01  0.50000500000E+01  0.50000000000E+01 0.  0.
     100001    1    1    2    0    0 -0.23134601669E-02 -0.42275747837E-02  0.21835247045E-01  0.50000500000E+01  0.50000000000E+01 0.  1.
</event>
<event>
 4    1  0.4897575E-001  0.5000050E+01  0.7818608E-02  0.2136455E+00
        -11   -1    0    0    0    0  0.00000000000E+00  0.00000000000E+00  0.50000499739E+01  0.50000500000E+01  0.51100000000E-03 0.  1.
         11   -1    0    0    0    0 -0.00000000000E+00 -0.00000000000E+00 -0.50000499739E+01  0.50000500000E+01  0.51100000000E-03 0. -1.
     100001    1    1    2    0    0  0.11757115541E-01  0.17167709558E-01  0.81879474030E-02  0.50000500000E+01  0.50000000000E+01 0.  0.
     100001    1    1    2    0    0 -0.11757115541E-01 -0.17167709558E-01 -0.81879474030E-02  0.50000500000E+01  0.50000000000E+01 0.  0.
</event>
<event>
 4    1  0.4897575E-001  0.5000050E+01  0.7818608E-02  0.2136455E+00
        -11   -1    0    0    0    0  0.00000000000E+00  0.00000000000E+00  0.50000499739E+01  0.50000500000E+01  0.51100000000E-03 0.  1.
         11   -1    0    0    0    0 -0.00000000000E+00 -0.00000000000E+00 -0.50000499739E+01  0.50000500000E+01  0.51100000000E-03 0. -1.
     100001    1    1    2    0    0 -0.12725487433E-01  0.18052270082E-01  0.34899877478E-02  0.50000500000E+01  0.50000000000E+01 0.  1.
     100001    1    1    2    0    0  0.12725487433E-01 -0.18052270082E-01 -0.34899877478E-02  0.50000500000E+01  0.50000000000E+01 0. -1.
</event>
<event>
 4    1  0.4897575E-001  0.5000050E+01  0.7818608E-02  0.2136455E+00
        -11   -1    0    0    0    0  0.00000000000E+00  0.00000000000E+00  0.50000499739E+01  0.50000500000E+01  0.51100000000E-03 0.  1.
         11   -1    0    0    0    0 -0.00000000000E+00 -0.00000000000E+00 -0.50000499739E+01  0.50000500000E+01  0.51100000000E-03 0. -1.
     100001    1    1    2    0    0  0.40725462585E-02 -0.12545615127E-01  0.18056145991E-01  0.50000500000E+01  0.50000000000E+01 0.  1.
     100001    1    1    2    0    0 -0.40725462585E-02  0.12545615127E-01 -0.18056145991E-01  0.50000500000E+01  0.50000000000E+01 0. -1.
</event>
<event>
 4    1  0.4897575E-001  0.5000050E+01  0.7818608E-02  0.2136455E+00
        -11   -1    0    0    0    0  0.00000000000E+00  0.00000000000E+00  0.50000499739E+01  0.50000500000E+01  0.51100000000E-03 0.  1.
         11   -1    0    0    0    0 -0.00000000000E+00 -0.00000000000E+00 -0.50000499739E+01  0.50000500000E+01  0.51100000000E-03 0. -1.
     100001    1    1    2    0    0 -0.88623545570E-03  0.55859775936E-02 -0.21633629863E-01  0.50000500000E+01  0.50000000000E+01 0.  0.
     100001    1    1    2    0    0  0.88623545570E-03 -0.55859775936E-02  0.21633629863E-01  0.50000500000E+01  0.50000000000E+01 0.  1.
</event>
<event>
 4    1  0.4897575E-001  0.5000050E+01  0.7818608E-02  0.2136455E+00
        -11   -1    0    0    0    0  0.00000000000E+00  0.00000000000E+00  0.50000499739E+01  0.50000500000E+01  0.51100000000E-03 0. -1.
         11   -1    0    0    0    0 -0.00000000000E+00 -0.00000000000E+00 -0.50000499739E+01  0.50000500000E+01  0.51100000000E-03 0.  1.
     100001    1    1    2    0    0  0.41677082441E-02 -0.10957997739E-01 -0.19040876911E-01  0.50000500000E+01  0.50000000000E+01 0.  1.
     100001    1    1    2    0    0 -0.41677082441E-02  0.10957997739E-01  0.19040876911E-01  0.50000500000E+01  0.50000000000E+01 0.  0.
</event>
<event>
 4    1  0.4897575E-001  0.5000050E+01  0.7818608E-02  0.2136455E+00
        -11   -1    0    0    0    0  0.00000000000E+00  0.00000000000E+00  0.50000499739E+01  0.50000500000E+01  0.51100000000E-03 0. -1.
         11   -1    0    0    0    0 -0.00000000000E+00 -0.00000000000E+00 -0.50000499739E+01  0.50000500000E+01  0.51100000000E-03 0.  1.
     100001    1    1    2    0    0  0.13687176129E-01 -0.17290117118E-02 -0.17597563130E-01  0.50000500000E+01  0.50000000000E+01 0.  1.
     100001    1    1    2    0    0 -0.13687176129E-01  0.17290117118E-02  0.17597563130E-01  0.50000500000E+01  0.50000000000E+01 0.  1.
</event>
<event>
 4    1  0.4897575E-001  0.5000050E+01  0.7818608E-02  0.2136455E+00
        -11   -1    0    0    0    0  0.00000000000E+00  0.00000000000E+00  0.50000499739E+01  0.50000500000E+01  0.51100000000E-03 0. -1.
         11   -1    0    0    0    0 -0.00000000000E+00 -0.00000000000E+00 -0.50000499739E+01  0.50000500000E+01  0.51100000000E-03 0.  1.
     100001    1    1    2    0    0 -0.85993415832E-02  0.78839043274E-02 -0.19076107488E-01  0.50000500000E+01  0.50000000000E+01 0.  1.
     100001    1    1    2    0    0  0.85993415832E-02 -0.78839043274E-02  0.19076107488E-01  0.50000500000E+01  0.50000000000E+01 0.  1.
</event>
<event>
 4    1  0.4897575E-001  0.5000050E+01  0.7818608E-02  0.2136455E+00
        -11   -1    0    0    0    0  0.00000000000E+00  0.00000000000E+00  0.50000499739E+01  0.50000500000E+01  0.51100000000E-03 0. -1.
         11   -1    0    0    0    0 -0.00000000000E+00 -0.00000000000E+00 -0.50000499739E+01  0.50000500000E+01  0.51100000000E-03 0.  1.
     100001    1    1    2    0    0 -0.70617470136E-02 -0.18197889041E-01 -0.10907385735E-01  0.50000500000E+01  0.50000000000E+01 0. -1.
     100001    1    1    2    0    0  0.70617470136E-02  0.18197889041E-01  0.10907385735E-01  0.50000500000E+01  0.50000000000E+01 0. -1.
</event>
<event>
 4    1  0.4897575E-001  0.5000050E+01  0.7818608E-02  0.2136455E+00
        -11   -1    0    0    0    0  0.00000000000E+00  0.00000000000E+00  0.50000499739E+01  0.50000500000E+01  0.51100000000E-03 0.  1.
         11   -1    0    0    0    0 -0.00000000000E+00 -0.00000000000E+00 -0.50000499739E+01  0.50000500000E+01  0.51100000000E-03 0. -1.
     100001    1    1    2    0    0  0.10357204793E-01 -0.15962220955E-01 -0.11744714175E-01  0.50000500000E+01  0.50000000000E+01 0.  1.
     100001    1    1    2    0    0 -0.10357204793E-01  0.15962220955E-01  0.11744714175E-01  0.50000500000E+01  0.50000000000E+01 0. -1.
</event>
<event>
 4    1  0.4897575E-001  0.5000050E+01  0.7818608E-02  0.2136455E+00
        -11   -1    0    0    0    0  0.00000000000E+00  0.00000000000E+00  0.50000499739E+01  0.50000500000E+01  0.51100000000E-03 0. -1.
         11   -1    0    0    0    0 -0.00000000000E+00 -0.00000000000E+00 -0.50000499739E+01  0.50000500000E+01  0.51100000000E-03 0.  1.
     100001    1    1    2    0    0  0.92787797989E-02  0.20308031816E-01 -0.12208968906E-02  0.50000500000E+01  0.50000000000E+01 0.  1.
     100001    1    1    2    0    0 -0.92787797989E-02 -0.20308031816E-01  0.12208968906E-02  0.50000500000E+01  0.50000000000E+01 0.  0.
</event>
<event>
 4    1  0.4897575E-001  0.5000050E+01  0.7818608E-02  0.2136455E+00
        -11   -1    0    0    0    0  0.00000000000E+00  0.00000000000E+00  0.50000499739E+01  0.50000500000E+01  0.51100000000E-03 0.  1.
         11   -1    0    0    0    0 -0.00000000000E+00 -0.00000000000E+00 -0.50000499739E+01  0.50000500000E+01  0.51100000000E-03 0. -1.
     100001    1    1    2    0    0  0.13109435866E-01 -0.18114191348E-01 -0.14581861728E-03  0.50000500000E+01  0.50000000000E+01 0. -1.
     100001    1    1    2    0    0 -0.13109435866E-01  0.18114191348E-01  0.14581861728E-03  0.50000500000E+01  0.50000000000E+01 0.  1.
</event>
<event>
 4    1  0.4897575E-001  0.5000050E+01  0.7818608E-02  0.2136455E+00
        -11   -1    0    0    0    0  0.00000000000E+00  0.00000000000E+00  0.50000499739E+01  0.50000500000E+01  0.51100000000E-03 0. -1.
         11   -1    0    0    0    0 -0.00000000000E+00 -0.00000000000E+00 -0.50000499739E+01  0.50000500000E+01  0.51100000000E-03 0.  1.
     100001    1    1    2    0    0  0.16903835285E-01  0.14081224368E-01 -0.39977459871E-02  0.50000500000E+01  0.50000000000E+01 0.  1.
     100001    1    1    2    0    0 -0.16903835285E-01 -0.14081224368E-01  0.39977459871E-02  0.50000500000E+01  0.50000000000E+01 0. -1.
</event>
<event>
 4    1  0.4897575E-001  0.5000050E+01  0.7818608E-02  0.2136455E+00
        -11   -1    0    0    0    0  0.00000000000E+00  0.00000000000E+00  0.50000499739E+01  0.50000500000E+01  0.51100000000E-03 0. -1.
         11   -1    0    0    0    0 -0.00000000000E+00 -0.00000000000E+00 -0.50000499739E+01  0.50000500000E+01  0.51100000000E-03 0.  1.
     100001    1    1    2    0    0 -0.46713713583E-02  0.98356434025E-02 -0.19530512243E-01  0.50000500000E+01  0.50000000000E+01 0.  0.
     100001    1    1    2    0    0  0.46713713583E-02 -0.98356434025E-02  0.19530512243E-01  0.50000500000E+01  0.50000000000E+01 0. -1.
</event>
<event>
 4    1  0.4897575E-001  0.5000050E+01  0.7818608E-02  0.2136455E+00
        -11   -1    0    0    0    0  0.00000000000E+00  0.00000000000E+00  0.50000499739E+01  0.50000500000E+01  0.51100000000E-03 0.  1.
         11   -1    0    0    0    0 -0.00000000000E+00 -0.00000000000E+00 -0.50000499739E+01  0.50000500000E+01  0.51100000000E-03 0. -1.
     100001    1    1    2    0    0  0.19664107785E-01 -0.25851673033E-02  0.10326774668E-01  0.50000500000E+01  0.50000000000E+01 0. -1.
     100001    1    1    2    0    0 -0.19664107785E-01  0.25851673033E-02 -0.10326774668E-01  0.50000500000E+01  0.50000000000E+01 0.  0.
</event>
<event>
 4    1  0.4897575E-001  0.5000050E+01  0.7818608E-02  0.2136455E+00
        -11   -1    0    0    0    0  0.00000000000E+00  0.00000000000E+00  0.50000499739E+01  0.50000500000E+01  0.51100000000E-03 0.  1.
         11   -1    0    0    0    0 -0.00000000000E+00 -0.00000000000E+00 -0.50000499739E+01  0.50000500000E+01  0.51100000000E-03 0. -1.
     100001    1    1    2    0    0 -0.13238353322E-01 -0.17320263389E-01  0.49756383988E-02  0.50000500000E+01  0.50000000000E+01 0. -1.
     100001    1    1    2    0    0  0.13238353322E-01  0.17320263389E-01 -0.49756383988E-02  0.50000500000E+01  0.50000000000E+01 0.  1.
</event>
<event>
 4    1  0.4897575E-001  0.5000050E+01  0.7818608E-02  0.2136455E+00
        -11   -1    0    0    0    0  0.00000000000E+00  0.00000000000E+00  0.50000499739E+01  0.50000500000E+01  0.51100000000E-03 0. -1.
         11   -1    0    0    0    0 -0.00000000000E+00 -0.00000000000E+00 -0.50000499739E+01  0.50000500000E+01  0.51100000000E-03 0.  1.
     100001    1    1    2    0    0  0.11992944919E-01 -0.49991394632E-02  0.18198361926E-01  0.50000500000E+01  0.50000000000E+01 0.  0.
     100001    1    1    2    0    0 -0.11992944919E-01  0.49991394632E-02 -0.18198361926E-01  0.50000500000E+01  0.50000000000E+01 0.  0.
</event>
<event>
 4    1  0.4897575E-001  0.5000050E+01  0.7818608E-02  0.2136455E+00
        -11   -1    0    0    0    0  0.00000000000E+00  0.00000000000E+00  0.50000499739E+01  0.50000500000E+01  0.51100000000E-03 0.  1.
         11   -1    0    0    0    0 -0.00000000000E+00 -0.00000000000E+00 -0.50000499739E+01  0.50000500000E+01  0.51100000000E-03 0. -1.
     100001    1    1    2    0    0  0.20116501309E-02  0.80794234278E-02 -0.20752799349E-01  0.50000500000E+01  0.50000000000E+01 0. -1.
     100001    1    1    2    0    0 -0.20116501309E-02 -0.80794234278E-02  0.20752799349E-01  0.50000500000E+01  0.50000000000E+01 0.  0.
</event>
<event>
 4    1  0.4897575E-001  0.5000050E+01  0.7818608E-02  0.2136455E+00
        -11   -1    0    0    0    0  0.00000000000E+00  0.00000000000E+00  0.50000499739E+01  0.50000500000E+01  0.51100000000E-03 0. -1.
         11   -1    0    0    0    0 -0.00000000000E+00 -0.00000000000E+00 -0.50000499739E+01  0.50000500000E+01  0.51100000000E-03 0.  1.
     100001    1    1    2    0    0 -0.14738541915E-01 -0.18773134325E-02  0.16710881978E-01  0.50000500000E+01  0.50000000000E+01 0.  0.
     100001    1    1    2    0    0  0.14738541915E-01  0.18773134325E-02 -0.16710881978E-01  0.50000500000E+01  0.50000000000E+01 0.  0.
</event>
<event>
 4    1  0.4897575E-001  0.5000050E+01  0.7818608E-02  0.2136455E+00
        -11   -1    0    0    0    0  0.00000000000E+00  0.00000000000E+00  0.50000499739E+01  0.50000500000E+01  0.51100000000E-03 0. -1.
         11   -1    0    0    0    0 -0.00000000000E+00 -0.00000000000E+00 -0.50000499739E+01  0.50000500000E+01  0.51100000000E-03 0.  1.
     100001    1    1    2    0    0 -0.10612229443E-03  0.76635581406E-02 -0.21006216096E-01  0.50000500000E+01  0.50000000000E+01 0.  0.
     100001    1    1    2    0    0  0.10612229443E-03 -0.76635581406E-02  0.21006216096E-01  0.50000500000E+01  0.50000000000E+01 0. -1.
</event>
<event>
 4    1  0.4897575E-001  0.5000050E+01  0.7818608E-02  0.2136455E+00
        -11   -1    0    0    0    0  0.00000000000E+00  0.00000000000E+00  0.50000499739E+01  0.50000500000E+01  0.51100000000E-03 0. -1.
         11   -1    0    0    0    0 -0.00000000000E+00 -0.00000000000E+00 -0.50000499739E+01  0.50000500000E+01  0.51100000000E-03 0.  1.
     100001    1    1    2    0    0  0.11815573635E-01  0.12407846056E-01 -0.14368022686E-01  0.50000500000E+01  0.50000000000E+01 0. -1.
     100001    1    1    2    0    0 -0.11815573635E-01 -0.12407846056E-01  0.14368022686E-01  0.50000500000E+01  0.50000000000E+01 0.  1.
</event>
<event>
 4    1  0.4897575E-001  0.5000050E+01  0.7818608E-02  0.2136455E+00
        -11   -1    0    0    0    0  0.00000000000E+00  0.00000000000E+00  0.50000499739E+01  0.50000500000E+01  0.51100000000E-03 0.  1.
         11   -1    0    0    0    0 -0.00000000000E+00 -0.00000000000E+00 -0.50000499739E+01  0.50000500000E+01  0.51100000000E-03 0. -1.
     100001    1    1    2    0    0  0.73373941273E-02  0.11672507686E-01 -0.17604479877E-01  0.50000500000E+01  0.50000000000E+01 0.  0.
     100001    1    1    2    0    0 -0.73373941273E-02 -0.11672507686E-01  0.17604479877E-01  0.50000500000E+01  0.50000000000E+01 0.  1.
</event>
<event>
 4    1  0.4897575E-001  0.5000050E+01  0.7818608E-02  0.2136455E+00
        -11   -1    0    0    0    0  0.00000000000E+00  0.00000000000E+00  0.50000499739E+01  0.50000500000E+01  0.51100000000E-03 0. -1.
         11   -1    0    0    0    0 -0.00000000000E+00 -0.00000000000E+00 -0.50000499739E+01  0.50000500000E+01  0.51100000000E-03 0.  1.
     100001    1    1    2    0    0 -0.20471241241E-01 -0.11112224971E-02 -0.89272597482E-02  0.50000500000E+01  0.50000000000E+01 0.  0.
     100001    1    1    2    0    0  0.20471241241E-01  0.11112224971E-02  0.89272597482E-02  0.50000500000E+01  0.50000000000E+01 0.  0.
</event>
<event>
 4    1  0.4897575E-001  0.5000050E+01  0.7818608E-02  0.2136455E+00
        -11   -1    0    0    0    0  0.00000000000E+00  0.00000000000E+00  0.50000499739E+01  0.50000500000E+01  0.51100000000E-03 0. -1.
         11   -1    0    0    0    0 -0.00000000000E+00 -0.00000000000E+00 -0.50000499739E+01  0.50000500000E+01  0.51100000000E-03 0.  1.
     100001    1    1    2    0    0  0.61340814901E-02 -0.70173395189E-03  0.21491466068E-01  0.50000500000E+01  0.50000000000E+01 0. -1.
     100001    1    1    2    0    0 -0.61340814901E-02  0.70173395189E-03 -0.21491466068E-01  0.50000500000E+01  0.50000000000E+01 0.  0.
</event>
<event>
 4    1  0.4897575E-001  0.5000050E+01  0.7818608E-02  0.2136455E+00
        -11   -1    0    0    0    0  0.00000000000E+00  0.00000000000E+00  0.50000499739E+01  0.50000500000E+01  0.51100000000E-03 0.  1.
         11   -1    0    0    0    0 -0.00000000000E+00 -0.00000000000E+00 -0.50000499739E+01  0.50000500000E+01  0.51100000000E-03 0. -1.
     100001    1    1    2    0    0 -0.58455389816E-02  0.17774752510E-01  0.12242971340E-01  0.50000500000E+01  0.50000000000E+01 0.  1.
     100001    1    1    2    0    0  0.58455389816E-02 -0.17774752510E-01 -0.12242971340E-01  0.50000500000E+01  0.50000000000E+01 0. -1.
</event>
<event>
 4    1  0.4897575E-001  0.5000050E+01  0.7818608E-02  0.2136455E+00
        -11   -1    0    0    0    0  0.00000000000E+00  0.00000000000E+00  0.50000499739E+01  0.50000500000E+01  0.51100000000E-03 0.  1.
         11   -1    0    0    0    0 -0.00000000000E+00 -0.00000000000E+00 -0.50000499739E+01  0.50000500000E+01  0.51100000000E-03 0. -1.
     100001    1    1    2    0    0  0.15197540611E-01  0.16096760459E-01  0.31514381006E-02  0.50000500000E+01  0.50000000000E+01 0.  1.
     100001    1    1    2    0    0 -0.15197540611E-01 -0.16096760459E-01 -0.31514381006E-02  0.50000500000E+01  0.50000000000E+01 0. -1.
</event>
<event>
 4    1  0.4897575E-001  0.5000050E+01  0.7818608E-02  0.2136455E+00
        -11   -1    0    0    0    0  0.00000000000E+00  0.00000000000E+00  0.50000499739E+01  0.50000500000E+01  0.51100000000E-03 0. -1.
         11   -1    0    0    0    0 -0.00000000000E+00 -0.00000000000E+00 -0.50000499739E+01  0.50000500000E+01  0.51100000000E-03 0.  1.
     100001    1    1    2    0    0 -0.20011326809E-01 -0.97699409699E-02 -0.20242412891E-02  0.50000500000E+01  0.50000000000E+01 0.  1.
     100001    1    1    2    0    0  0.20011326809E-01  0.97699409699E-02  0.20242412891E-02  0.50000500000E+01  0.50000000000E+01 0. -1.
</event>
<event>
 4    1  0.4897575E-001  0.5000050E+01  0.7818608E-02  0.2136455E+00
        -11   -1    0    0    0    0  0.00000000000E+00  0.00000000000E+00  0.50000499739E+01  0.50000500000E+01  0.51100000000E-03 0.  1.
         11   -1    0    0    0    0 -0.00000000000E+00 -0.00000000000E+00 -0.50000499739E+01  0.50000500000E+01  0.51100000000E-03 0. -1.
     100001    1    1    2    0    0  0.42968431900E-02  0.10757610717E-01 -0.19126250293E-01  0.50000500000E+01  0.50000000000E+01 0. -1.
     100001    1    1    2    0    0 -0.42968431900E-02 -0.10757610717E-01  0.19126250293E-01  0.50000500000E+01  0.50000000000E+01 0.  1.
</event>
<event>
 4    1  0.4897575E-001  0.5000050E+01  0.7818608E-02  0.2136455E+00
        -11   -1    0    0    0    0  0.00000000000E+00  0.00000000000E+00  0.50000499739E+01  0.50000500000E+01  0.51100000000E-03 0. -1.
         11   -1    0    0    0    0 -0.00000000000E+00 -0.00000000000E+00 -0.50000499739E+01  0.50000500000E+01  0.51100000000E-03 0.  1.
     100001    1    1    2    0    0 -0.18248751208E-01 -0.10821105429E-01 -0.70632327325E-02  0.50000500000E+01  0.50000000000E+01 0.  1.
     100001    1    1    2    0    0  0.18248751208E-01  0.10821105429E-01  0.70632327325E-02  0.50000500000E+01  0.50000000000E+01 0. -1.
</event>
<event>
 4    1  0.4897575E-001  0.5000050E+01  0.7818608E-02  0.2136455E+00
        -11   -1    0    0    0    0  0.00000000000E+00  0.00000000000E+00  0.50000499739E+01  0.50000500000E+01  0.51100000000E-03 0. -1.
         11   -1    0    0    0    0 -0.00000000000E+00 -0.00000000000E+00 -0.50000499739E+01  0.50000500000E+01  0.51100000000E-03 0.  1.
     100001    1    1    2    0    0 -0.15516844525E-01  0.14987760554E-01 -0.58819273693E-02  0.50000500000E+01  0.50000000000E+01 0. -1.
     100001    1    1    2    0    0  0.15516844525E-01 -0.14987760554E-01  0.58819273693E-02  0.50000500000E+01  0.50000000000E+01 0.  1.
</event>
<event>
 4    1  0.4897575E-001  0.5000050E+01  0.7818608E-02  0.2136455E+00
        -11   -1    0    0    0    0  0.00000000000E+00  0.00000000000E+00  0.50000499739E+01  0.50000500000E+01  0.51100000000E-03 0.  1.
         11   -1    0    0    0    0 -0.00000000000E+00 -0.00000000000E+00 -0.50000499739E+01  0.50000500000E+01  0.51100000000E-03 0. -1.
     100001    1    1    2    0    0  0.91182097849E-02  0.19916371513E-01 -0.44943181977E-02  0.50000500000E+01  0.50000000000E+01 0. -1.
     100001    1    1    2    0    0 -0.91182097849E-02 -0.19916371513E-01  0.44943181977E-02  0.50000500000E+01  0.50000000000E+01 0.  0.
</event>
<event>
 4    1  0.4897575E-001  0.5000050E+01  0.7818608E-02  0.2136455E+00
        -11   -1    0    0    0    0  0.00000000000E+00  0.00000000000E+00  0.50000499739E+01  0.50000500000E+01  0.51100000000E-03 0. -1.
         11   -1    0    0    0    0 -0.00000000000E+00 -0.00000000000E+00 -0.50000499739E+01  0.50000500000E+01  0.51100000000E-03 0.  1.
     100001    1    1    2    0    0  0.21538694748E-01 -0.28672877291E-03 -0.60004095837E-02  0.50000500000E+01  0.50000000000E+01 0. -1.
     100001    1    1    2    0    0 -0.21538694748E-01  0.28672877291E-03  0.60004095837E-02  0.50000500000E+01  0.50000000000E+01 0.  1.
</event>
<event>
 4    1  0.4897575E-001  0.5000050E+01  0.7818608E-02  0.2136455E+00
        -11   -1    0    0    0    0  0.00000000000E+00  0.00000000000E+00  0.50000499739E+01  0.50000500000E+01  0.51100000000E-03 0. -1.
         11   -1    0    0    0    0 -0.00000000000E+00 -0.00000000000E+00 -0.50000499739E+01  0.50000500000E+01  0.51100000000E-03 0.  1.
     100001    1    1    2    0    0 -0.10159811585E-01 -0.19919286447E-01 -0.52497473888E-04  0.50000500000E+01  0.50000000000E+01 0.  1.
     100001    1    1    2    0    0  0.10159811585E-01  0.19919286447E-01  0.52497473888E-04  0.50000500000E+01  0.50000000000E+01 0. -1.
</event>
<event>
 4    1  0.4897575E-001  0.5000050E+01  0.7818608E-02  0.2136455E+00
        -11   -1    0    0    0    0  0.00000000000E+00  0.00000000000E+00  0.50000499739E+01  0.50000500000E+01  0.51100000000E-03 0.  1.
         11   -1    0    0    0    0 -0.00000000000E+00 -0.00000000000E+00 -0.50000499739E+01  0.50000500000E+01  0.51100000000E-03 0. -1.
     100001    1    1    2    0    0 -0.82255786654E-02 -0.20417144392E-01  0.39347897631E-02  0.50000500000E+01  0.50000000000E+01 0.  0.
     100001    1    1    2    0    0  0.82255786654E-02  0.20417144392E-01 -0.39347897631E-02  0.50000500000E+01  0.50000000000E+01 0.  1.
</event>
<event>
 4    1  0.4897575E-001  0.5000050E+01  0.7818608E-02  0.2136455E+00
        -11   -1    0    0    0    0  0.00000000000E+00  0.00000000000E+00  0.50000499739E+01  0.50000500000E+01  0.51100000000E-03 0.  1.
         11   -1    0    0    0    0 -0.00000000000E+00 -0.00000000000E+00 -0.50000499739E+01  0.50000500000E+01  0.51100000000E-03 0. -1.
     100001    1    1    2    0    0  0.16597303844E-01 -0.47845795094E-02  0.14199993099E-01  0.50000500000E+01  0.50000000000E+01 0.  1.
     100001    1    1    2    0    0 -0.16597303844E-01  0.47845795094E-02 -0.14199993099E-01  0.50000500000E+01  0.50000000000E+01 0. -1.
</event>
<event>
 4    1  0.4897575E-001  0.5000050E+01  0.7818608E-02  0.2136455E+00
        -11   -1    0    0    0    0  0.00000000000E+00  0.00000000000E+00  0.50000499739E+01  0.50000500000E+01  0.51100000000E-03 0. -1.
         11   -1    0    0    0    0 -0.00000000000E+00 -0.00000000000E+00 -0.50000499739E+01  0.50000500000E+01  0.51100000000E-03 0.  1.
     100001    1    1    2    0    0 -0.12909633761E-01 -0.13483394321E-01  0.12310236949E-01  0.50000500000E+01  0.50000000000E+01 0.  0.
     100001    1    1    2    0    0  0.12909633761E-01  0.13483394321E-01 -0.12310236949E-01  0.50000500000E+01  0.50000000000E+01 0.  0.
</event>
<event>
 4    1  0.4897575E-001  0.5000050E+01  0.7818608E-02  0.2136455E+00
        -11   -1    0    0    0    0  0.00000000000E+00  0.00000000000E+00  0.50000499739E+01  0.50000500000E+01  0.51100000000E-03 0.  1.
         11   -1    0    0    0    0 -0.00000000000E+00 -0.00000000000E+00 -0.50000499739E+01  0.50000500000E+01  0.51100000000E-03 0. -1.
     100001    1    1    2    0    0 -0.24126589534E-02 -0.79380859044E-02 -0.20764594119E-01  0.50000500000E+01  0.50000000000E+01 0. -1.
     100001    1    1    2    0    0  0.24126589534E-02  0.79380859044E-02  0.20764594119E-01  0.50000500000E+01  0.50000000000E+01 0.  0.
</event>
<event>
 4    1  0.4897575E-001  0.5000050E+01  0.7818608E-02  0.2136455E+00
        -11   -1    0    0    0    0  0.00000000000E+00  0.00000000000E+00  0.50000499739E+01  0.50000500000E+01  0.51100000000E-03 0.  1.
         11   -1    0    0    0    0 -0.00000000000E+00 -0.00000000000E+00 -0.50000499739E+01  0.50000500000E+01  0.51100000000E-03 0. -1.
     100001    1    1    2    0    0  0.15869793883E-01 -0.13626122801E-01  0.79044873031E-02  0.50000500000E+01  0.50000000000E+01 0.  0.
     100001    1    1    2    0    0 -0.15869793883E-01  0.13626122801E-01 -0.79044873031E-02  0.50000500000E+01  0.50000000000E+01 0.  0.
</event>
<event>
 4    1  0.4897575E-001  0.5000050E+01  0.7818608E-02  0.2136455E+00
        -11   -1    0    0    0    0  0.00000000000E+00  0.00000000000E+00  0.50000499739E+01  0.50000500000E+01  0.51100000000E-03 0. -1.
         11   -1    0    0    0    0 -0.00000000000E+00 -0.00000000000E+00 -0.50000499739E+01  0.50000500000E+01  0.51100000000E-03 0.  1.
     100001    1    1    2    0    0  0.13205466637E-01 -0.17661927151E-01  0.36979021376E-02  0.50000500000E+01  0.50000000000E+01 0.  0.
     100001    1    1    2    0    0 -0.13205466637E-01  0.17661927151E-01 -0.36979021376E-02  0.50000500000E+01  0.50000000000E+01 0. -1.
</event>
<event>
 4    1  0.4897575E-001  0.5000050E+01  0.7818608E-02  0.2136455E+00
        -11   -1    0    0    0    0  0.00000000000E+00  0.00000000000E+00  0.50000499739E+01  0.50000500000E+01  0.51100000000E-03 0. -1.
         11   -1    0    0    0    0 -0.00000000000E+00 -0.00000000000E+00 -0.50000499739E+01  0.50000500000E+01  0.51100000000E-03 0.  1.
     100001    1    1    2    0    0 -0.11065763515E-01  0.87239980862E-02  0.17362120700E-01  0.50000500000E+01  0.50000000000E+01 0.  0.
     100001    1    1    2    0    0  0.11065763515E-01 -0.87239980862E-02 -0.17362120700E-01  0.50000500000E+01  0.50000000000E+01 0.  1.
</event>
<event>
 4    1  0.4897575E-001  0.5000050E+01  0.7818608E-02  0.2136455E+00
        -11   -1    0    0    0    0  0.00000000000E+00  0.00000000000E+00  0.50000499739E+01  0.50000500000E+01  0.51100000000E-03 0.  1.
         11   -1    0    0    0    0 -0.00000000000E+00 -0.00000000000E+00 -0.50000499739E+01  0.50000500000E+01  0.51100000000E-03 0. -1.
     100001    1    1    2    0    0  0.12078359629E-01  0.11898287471E-01 -0.14578974035E-01  0.50000500000E+01  0.50000000000E+01 0. -1.
     100001    1    1    2    0    0 -0.12078359629E-01 -0.11898287471E-01  0.14578974035E-01  0.50000500000E+01  0.50000000000E+01 0.  1.
</event>
<event>
 4    1  0.4897575E-001  0.5000050E+01  0.7818608E-02  0.2136455E+00
        -11   -1    0    0    0    0  0.00000000000E+00  0.00000000000E+00  0.50000499739E+01  0.50000500000E+01  0.51100000000E-03 0.  1.
         11   -1    0    0    0    0 -0.00000000000E+00 -0.00000000000E+00 -0.50000499739E+01  0.50000500000E+01  0.51100000000E-03 0. -1.
     100001    1    1    2    0    0  0.21977811165E-01 -0.19352311138E-02 -0.36377461345E-02  0.50000500000E+01  0.50000000000E+01 0.  1.
     100001    1    1    2    0    0 -0.21977811165E-01  0.19352311138E-02  0.36377461345E-02  0.50000500000E+01  0.50000000000E+01 0. -1.
</event>
<event>
 4    1  0.4897575E-001  0.5000050E+01  0.7818608E-02  0.2136455E+00
        -11   -1    0    0    0    0  0.00000000000E+00  0.00000000000E+00  0.50000499739E+01  0.50000500000E+01  0.51100000000E-03 0.  1.
         11   -1    0    0    0    0 -0.00000000000E+00 -0.00000000000E+00 -0.50000499739E+01  0.50000500000E+01  0.51100000000E-03 0. -1.
     100001    1    1    2    0    0  0.19743697480E-01 -0.94861350547E-02  0.44946803579E-02  0.50000500000E+01  0.50000000000E+01 0.  0.
     100001    1    1    2    0    0 -0.19743697480E-01  0.94861350547E-02 -0.44946803579E-02  0.50000500000E+01  0.50000000000E+01 0. -1.
</event>
<event>
 4    1  0.4897575E-001  0.5000050E+01  0.7818608E-02  0.2136455E+00
        -11   -1    0    0    0    0  0.00000000000E+00  0.00000000000E+00  0.50000499739E+01  0.50000500000E+01  0.51100000000E-03 0.  1.
         11   -1    0    0    0    0 -0.00000000000E+00 -0.00000000000E+00 -0.50000499739E+01  0.50000500000E+01  0.51100000000E-03 0. -1.
     100001    1    1    2    0    0 -0.12015505294E-01  0.17810266361E-01 -0.61987534779E-02  0.50000500000E+01  0.50000000000E+01 0.  0.
     100001    1    1    2    0    0  0.12015505294E-01 -0.17810266361E-01  0.61987534779E-02  0.50000500000E+01  0.50000000000E+01 0.  0.
</event>
<event>
 4    1  0.4897575E-001  0.5000050E+01  0.7818608E-02  0.2136455E+00
        -11   -1    0    0    0    0  0.00000000000E+00  0.00000000000E+00  0.50000499739E+01  0.50000500000E+01  0.51100000000E-03 0. -1.
         11   -1    0    0    0    0 -0.00000000000E+00 -0.00000000000E+00 -0.50000499739E+01  0.50000500000E+01  0.51100000000E-03 0.  1.
     100001    1    1    2    0    0  0.19487896216E-01 -0.41157807835E-02  0.10162910490E-01  0.50000500000E+01  0.50000000000E+01 0.  1.
     100001    1    1    2    0    0 -0.19487896216E-01  0.41157807835E-02 -0.10162910490E-01  0.50000500000E+01  0.50000000000E+01 0. -1.
</event>
<event>
 4    1  0.4897575E-001  0.5000050E+01  0.7818608E-02  0.2136455E+00
        -11   -1    0    0    0    0  0.00000000000E+00  0.00000000000E+00  0.50000499739E+01  0.50000500000E+01  0.51100000000E-03 0. -1.
         11   -1    0    0    0    0 -0.00000000000E+00 -0.00000000000E+00 -0.50000499739E+01  0.50000500000E+01  0.51100000000E-03 0.  1.
     100001    1    1    2    0    0  0.18485438666E-01  0.12295736349E-01 -0.26656940845E-02  0.50000500000E+01  0.50000000000E+01 0.  0.
     100001    1    1    2    0    0 -0.18485438666E-01 -0.12295736349E-01  0.26656940845E-02  0.50000500000E+01  0.50000000000E+01 0.  1.
</event>
<event>
 4    1  0.4897575E-001  0.5000050E+01  0.7818608E-02  0.2136455E+00
        -11   -1    0    0    0    0  0.00000000000E+00  0.00000000000E+00  0.50000499739E+01  0.50000500000E+01  0.51100000000E-03 0. -1.
         11   -1    0    0    0    0 -0.00000000000E+00 -0.00000000000E+00 -0.50000499739E+01  0.50000500000E+01  0.51100000000E-03 0.  1.
     100001    1    1    2    0    0  0.15763828841E-02  0.88248710487E-02 -0.20485096240E-01  0.50000500000E+01  0.50000000000E+01 0.  0.
     100001    1    1    2    0    0 -0.15763828841E-02 -0.88248710487E-02  0.20485096240E-01  0.50000500000E+01  0.50000000000E+01 0. -1.
</event>
<event>
 4    1  0.4897575E-001  0.5000050E+01  0.7818608E-02  0.2136455E+00
        -11   -1    0    0    0    0  0.00000000000E+00  0.00000000000E+00  0.50000499739E+01  0.50000500000E+01  0.51100000000E-03 0.  1.
         11   -1    0    0    0    0 -0.00000000000E+00 -0.00000000000E+00 -0.50000499739E+01  0.50000500000E+01  0.51100000000E-03 0. -1.
     100001    1    1    2    0    0 -0.42588960944E-03 -0.52373415197E-02 -0.21734566291E-01  0.50000500000E+01  0.50000000000E+01 0.  0.
     100001    1    1    2    0    0  0.42588960944E-03  0.52373415197E-02  0.21734566291E-01  0.50000500000E+01  0.50000000000E+01 0.  1.
</event>
<event>
 4    1  0.4897575E-001  0.5000050E+01  0.7818608E-02  0.2136455E+00
        -11   -1    0    0    0    0  0.00000000000E+00  0.00000000000E+00  0.50000499739E+01  0.50000500000E+01  0.51100000000E-03 0.  1.
         11   -1    0    0    0    0 -0.00000000000E+00 -0.00000000000E+00 -0.50000499739E+01  0.50000500000E+01  0.51100000000E-03 0. -1.
     100001    1    1    2    0    0 -0.95479314208E-02  0.17244721400E-01  0.10557418691E-01  0.50000500000E+01  0.50000000000E+01 0. -1.
     100001    1    1    2    0    0  0.95479314208E-02 -0.17244721400E-01 -0.10557418691E-01  0.50000500000E+01  0.50000000000E+01 0.  0.
</event>
<event>
 4    1  0.4897575E-001  0.5000050E+01  0.7818608E-02  0.2136455E+00
        -11   -1    0    0    0    0  0.00000000000E+00  0.00000000000E+00  0.50000499739E+01  0.50000500000E+01  0.51100000000E-03 0.  1.
         11   -1    0    0    0    0 -0.00000000000E+00 -0.00000000000E+00 -0.50000499739E+01  0.50000500000E+01  0.51100000000E-03 0. -1.
     100001    1    1    2    0    0  0.16410026268E-01  0.12786542797E-01  0.81986499598E-02  0.50000500000E+01  0.50000000000E+01 0.  1.
     100001    1    1    2    0    0 -0.16410026268E-01 -0.12786542797E-01 -0.81986499598E-02  0.50000500000E+01  0.50000000000E+01 0. -1.
</event>
<event>
 4    1  0.4897575E-001  0.5000050E+01  0.7818608E-02  0.2136455E+00
        -11   -1    0    0    0    0  0.00000000000E+00  0.00000000000E+00  0.50000499739E+01  0.50000500000E+01  0.51100000000E-03 0. -1.
         11   -1    0    0    0    0 -0.00000000000E+00 -0.00000000000E+00 -0.50000499739E+01  0.50000500000E+01  0.51100000000E-03 0.  1.
     100001    1    1    2    0    0  0.62450155593E-03  0.18502794966E-01 -0.12540298093E-01  0.50000500000E+01  0.50000000000E+01 0.  1.
     100001    1    1    2    0    0 -0.62450155593E-03 -0.18502794966E-01  0.12540298093E-01  0.50000500000E+01  0.50000000000E+01 0. -1.
</event>
<event>
 4    1  0.4897575E-001  0.5000050E+01  0.7818608E-02  0.2136455E+00
        -11   -1    0    0    0    0  0.00000000000E+00  0.00000000000E+00  0.50000499739E+01  0.50000500000E+01  0.51100000000E-03 0. -1.
         11   -1    0    0    0    0 -0.00000000000E+00 -0.00000000000E+00 -0.50000499739E+01  0.50000500000E+01  0.51100000000E-03 0.  1.
     100001    1    1    2    0    0 -0.18611661932E-01  0.95650594491E-02 -0.78815086033E-02  0.50000500000E+01  0.50000000000E+01 0.  1.
     100001    1    1    2    0    0  0.18611661932E-01 -0.95650594491E-02  0.78815086033E-02  0.50000500000E+01  0.50000000000E+01 0. -1.
</event>
<event>
 4    1  0.4897575E-001  0.5000050E+01  0.7818608E-02  0.2136455E+00
        -11   -1    0    0    0    0  0.00000000000E+00  0.00000000000E+00  0.50000499739E+01  0.50000500000E+01  0.51100000000E-03 0.  1.
         11   -1    0    0    0    0 -0.00000000000E+00 -0.00000000000E+00 -0.50000499739E+01  0.50000500000E+01  0.51100000000E-03 0. -1.
     100001    1    1    2    0    0  0.72301181855E-02 -0.19330549918E-01  0.86056801528E-02  0.50000500000E+01  0.50000000000E+01 0.  1.
     100001    1    1    2    0    0 -0.72301181855E-02  0.19330549918E-01 -0.86056801528E-02  0.50000500000E+01  0.50000000000E+01 0. -1.
</event>
<event>
 4    1  0.4897575E-001  0.5000050E+01  0.7818608E-02  0.2136455E+00
        -11   -1    0    0    0    0  0.00000000000E+00  0.00000000000E+00  0.50000499739E+01  0.50000500000E+01  0.51100000000E-03 0. -1.
         11   -1    0    0    0    0 -0.00000000000E+00 -0.00000000000E+00 -0.50000499739E+01  0.50000500000E+01  0.51100000000E-03 0.  1.
     100001    1    1    2    0    0  0.20985171920E-01  0.16177184516E-02  0.75503673075E-02  0.50000500000E+01  0.50000000000E+01 0.  1.
     100001    1    1    2    0    0 -0.20985171920E-01 -0.16177184516E-02 -0.75503673075E-02  0.50000500000E+01  0.50000000000E+01 0.  0.
</event>
<event>
 4    1  0.4897575E-001  0.5000050E+01  0.7818608E-02  0.2136455E+00
        -11   -1    0    0    0    0  0.00000000000E+00  0.00000000000E+00  0.50000499739E+01  0.50000500000E+01  0.51100000000E-03 0.  1.
         11   -1    0    0    0    0 -0.00000000000E+00 -0.00000000000E+00 -0.50000499739E+01  0.50000500000E+01  0.51100000000E-03 0. -1.
     100001    1    1    2    0    0 -0.46900928060E-02  0.12271332835E-01  0.18094748408E-01  0.50000500000E+01  0.50000000000E+01 0.  1.
     100001    1    1    2    0    0  0.46900928060E-02 -0.12271332835E-01 -0.18094748408E-01  0.50000500000E+01  0.50000000000E+01 0. -1.
</event>
<event>
 4    1  0.4897575E-001  0.5000050E+01  0.7818608E-02  0.2136455E+00
        -11   -1    0    0    0    0  0.00000000000E+00  0.00000000000E+00  0.50000499739E+01  0.50000500000E+01  0.51100000000E-03 0. -1.
         11   -1    0    0    0    0 -0.00000000000E+00 -0.00000000000E+00 -0.50000499739E+01  0.50000500000E+01  0.51100000000E-03 0.  1.
     100001    1    1    2    0    0  0.16095067272E-01  0.13312731570E-01 -0.79826366356E-02  0.50000500000E+01  0.50000000000E+01 0.  0.
     100001    1    1    2    0    0 -0.16095067272E-01 -0.13312731570E-01  0.79826366356E-02  0.50000500000E+01  0.50000000000E+01 0.  1.
</event>
<event>
 4    1  0.4897575E-001  0.5000050E+01  0.7818608E-02  0.2136455E+00
        -11   -1    0    0    0    0  0.00000000000E+00  0.00000000000E+00  0.50000499739E+01  0.50000500000E+01  0.51100000000E-03 0.  1.
         11   -1    0    0    0    0 -0.00000000000E+00 -0.00000000000E+00 -0.50000499739E+01  0.50000500000E+01  0.51100000000E-03 0. -1.
     100001    1    1    2    0    0 -0.19751484274E-01  0.99362927189E-02  0.33393795766E-02  0.50000500000E+01  0.50000000000E+01 0.  1.
     100001    1    1    2    0    0  0.19751484274E-01 -0.99362927189E-02 -0.33393795766E-02  0.50000500000E+01  0.50000000000E+01 0. -1.
</event>
<event>
 4    1  0.4897575E-001  0.5000050E+01  0.7818608E-02  0.2136455E+00
        -11   -1    0    0    0    0  0.00000000000E+00  0.00000000000E+00  0.50000499739E+01  0.50000500000E+01  0.51100000000E-03 0. -1.
         11   -1    0    0    0    0 -0.00000000000E+00 -0.00000000000E+00 -0.50000499739E+01  0.50000500000E+01  0.51100000000E-03 0.  1.
     100001    1    1    2    0    0 -0.13527619534E-02 -0.11616623908E-01 -0.19058504246E-01  0.50000500000E+01  0.50000000000E+01 0.  1.
     100001    1    1    2    0    0  0.13527619534E-02  0.11616623908E-01  0.19058504246E-01  0.50000500000E+01  0.50000000000E+01 0.  0.
</event>
<event>
 4    1  0.4897575E-001  0.5000050E+01  0.7818608E-02  0.2136455E+00
        -11   -1    0    0    0    0  0.00000000000E+00  0.00000000000E+00  0.50000499739E+01  0.50000500000E+01  0.51100000000E-03 0. -1.
         11   -1    0    0    0    0 -0.00000000000E+00 -0.00000000000E+00 -0.50000499739E+01  0.50000500000E+01  0.51100000000E-03 0.  1.
     100001    1    1    2    0    0  0.21437632131E-01  0.47989765548E-02  0.41713610061E-02  0.50000500000E+01  0.50000000000E+01 0. -1.
     100001    1    1    2    0    0 -0.21437632131E-01 -0.47989765548E-02 -0.41713610061E-02  0.50000500000E+01  0.50000000000E+01 0.  1.
</event>
<event>
 4    1  0.4897575E-001  0.5000050E+01  0.7818608E-02  0.2136455E+00
        -11   -1    0    0    0    0  0.00000000000E+00  0.00000000000E+00  0.50000499739E+01  0.50000500000E+01  0.51100000000E-03 0.  1.
         11   -1    0    0    0    0 -0.00000000000E+00 -0.00000000000E+00 -0.50000499739E+01  0.50000500000E+01  0.51100000000E-03 0. -1.
     100001    1    1    2    0    0 -0.10037597176E-01 -0.17089275184E-01 -0.10354024175E-01  0.50000500000E+01  0.50000000000E+01 0. -1.
     100001    1    1    2    0    0  0.10037597176E-01  0.17089275184E-01  0.10354024175E-01  0.50000500000E+01  0.50000000000E+01 0.  1.
</event>
<event>
 4    1  0.4897575E-001  0.5000050E+01  0.7818608E-02  0.2136455E+00
        -11   -1    0    0    0    0  0.00000000000E+00  0.00000000000E+00  0.50000499739E+01  0.50000500000E+01  0.51100000000E-03 0.  1.
         11   -1    0    0    0    0 -0.00000000000E+00 -0.00000000000E+00 -0.50000499739E+01  0.50000500000E+01  0.51100000000E-03 0. -1.
     100001    1    1    2    0    0  0.10509180121E-01  0.28545527787E-02 -0.19529750680E-01  0.50000500000E+01  0.50000000000E+01 0.  0.
     100001    1    1    2    0    0 -0.10509180121E-01 -0.28545527787E-02  0.19529750680E-01  0.50000500000E+01  0.50000000000E+01 0.  1.
</event>
<event>
 4    1  0.4897575E-001  0.5000050E+01  0.7818608E-02  0.2136455E+00
        -11   -1    0    0    0    0  0.00000000000E+00  0.00000000000E+00  0.50000499739E+01  0.50000500000E+01  0.51100000000E-03 0. -1.
         11   -1    0    0    0    0 -0.00000000000E+00 -0.00000000000E+00 -0.50000499739E+01  0.50000500000E+01  0.51100000000E-03 0.  1.
     100001    1    1    2    0    0 -0.21025900776E-01 -0.69455499486E-02  0.31101981385E-02  0.50000500000E+01  0.50000000000E+01 0. -1.
     100001    1    1    2    0    0  0.21025900776E-01  0.69455499486E-02 -0.31101981385E-02  0.50000500000E+01  0.50000000000E+01 0.  1.
</event>
<event>
 4    1  0.4897575E-001  0.5000050E+01  0.7818608E-02  0.2136455E+00
        -11   -1    0    0    0    0  0.00000000000E+00  0.00000000000E+00  0.50000499739E+01  0.50000500000E+01  0.51100000000E-03 0.  1.
         11   -1    0    0    0    0 -0.00000000000E+00 -0.00000000000E+00 -0.50000499739E+01  0.50000500000E+01  0.51100000000E-03 0. -1.
     100001    1    1    2    0    0 -0.10210992012E-01 -0.28909104927E-02  0.19681991227E-01  0.50000500000E+01  0.50000000000E+01 0.  1.
     100001    1    1    2    0    0  0.10210992012E-01  0.28909104927E-02 -0.19681991227E-01  0.50000500000E+01  0.50000000000E+01 0.  0.
</event>
<event>
 4    1  0.4897575E-001  0.5000050E+01  0.7818608E-02  0.2136455E+00
        -11   -1    0    0    0    0  0.00000000000E+00  0.00000000000E+00  0.50000499739E+01  0.50000500000E+01  0.51100000000E-03 0.  1.
         11   -1    0    0    0    0 -0.00000000000E+00 -0.00000000000E+00 -0.50000499739E+01  0.50000500000E+01  0.51100000000E-03 0. -1.
     100001    1    1    2    0    0  0.90250328392E-02 -0.20433031703E-01 -0.10210277513E-02  0.50000500000E+01  0.50000000000E+01 0.  1.
     100001    1    1    2    0    0 -0.90250328392E-02  0.20433031703E-01  0.10210277513E-02  0.50000500000E+01  0.50000000000E+01 0. -1.
</event>
<event>
 4    1  0.4897575E-001  0.5000050E+01  0.7818608E-02  0.2136455E+00
        -11   -1    0    0    0    0  0.00000000000E+00  0.00000000000E+00  0.50000499739E+01  0.50000500000E+01  0.51100000000E-03 0.  1.
         11   -1    0    0    0    0 -0.00000000000E+00 -0.00000000000E+00 -0.50000499739E+01  0.50000500000E+01  0.51100000000E-03 0. -1.
     100001    1    1    2    0    0 -0.62395851965E-02 -0.12642647539E-01 -0.17356080772E-01  0.50000500000E+01  0.50000000000E+01 0. -1.
     100001    1    1    2    0    0  0.62395851965E-02  0.12642647539E-01  0.17356080772E-01  0.50000500000E+01  0.50000000000E+01 0.  1.
</event>
<event>
 4    1  0.4897575E-001  0.5000050E+01  0.7818608E-02  0.2136455E+00
        -11   -1    0    0    0    0  0.00000000000E+00  0.00000000000E+00  0.50000499739E+01  0.50000500000E+01  0.51100000000E-03 0.  1.
         11   -1    0    0    0    0 -0.00000000000E+00 -0.00000000000E+00 -0.50000499739E+01  0.50000500000E+01  0.51100000000E-03 0. -1.
     100001    1    1    2    0    0 -0.10071900521E-01 -0.40495201412E-02  0.19548931084E-01  0.50000500000E+01  0.50000000000E+01 0.  0.
     100001    1    1    2    0    0  0.10071900521E-01  0.40495201412E-02 -0.19548931084E-01  0.50000500000E+01  0.50000000000E+01 0.  0.
</event>
<event>
 4    1  0.4897575E-001  0.5000050E+01  0.7818608E-02  0.2136455E+00
        -11   -1    0    0    0    0  0.00000000000E+00  0.00000000000E+00  0.50000499739E+01  0.50000500000E+01  0.51100000000E-03 0. -1.
         11   -1    0    0    0    0 -0.00000000000E+00 -0.00000000000E+00 -0.50000499739E+01  0.50000500000E+01  0.51100000000E-03 0.  1.
     100001    1    1    2    0    0 -0.17453893429E-01 -0.54597313827E-02  0.12866834786E-01  0.50000500000E+01  0.50000000000E+01 0.  1.
     100001    1    1    2    0    0  0.17453893429E-01  0.54597313827E-02 -0.12866834786E-01  0.50000500000E+01  0.50000000000E+01 0.  1.
</event>
<event>
 4    1  0.4897575E-001  0.5000050E+01  0.7818608E-02  0.2136455E+00
        -11   -1    0    0    0    0  0.00000000000E+00  0.00000000000E+00  0.50000499739E+01  0.50000500000E+01  0.51100000000E-03 0. -1.
         11   -1    0    0    0    0 -0.00000000000E+00 -0.00000000000E+00 -0.50000499739E+01  0.50000500000E+01  0.51100000000E-03 0.  1.
     100001    1    1    2    0    0 -0.59633519751E-02 -0.37421171572E-03 -0.21547642535E-01  0.50000500000E+01  0.50000000000E+01 0.  1.
     100001    1    1    2    0    0  0.59633519751E-02  0.37421171572E-03  0.21547642535E-01  0.50000500000E+01  0.50000000000E+01 0.  0.
</event>
<event>
 4    1  0.4897575E-001  0.5000050E+01  0.7818608E-02  0.2136455E+00
        -11   -1    0    0    0    0  0.00000000000E+00  0.00000000000E+00  0.50000499739E+01  0.50000500000E+01  0.51100000000E-03 0.  1.
         11   -1    0    0    0    0 -0.00000000000E+00 -0.00000000000E+00 -0.50000499739E+01  0.50000500000E+01  0.51100000000E-03 0. -1.
     100001    1    1    2    0    0  0.21867574981E-01  0.15906745783E-02  0.43910612424E-02  0.50000500000E+01  0.50000000000E+01 0.  1.
     100001    1    1    2    0    0 -0.21867574981E-01 -0.15906745783E-02 -0.43910612424E-02  0.50000500000E+01  0.50000000000E+01 0. -1.
</event>
<event>
 4    1  0.4897575E-001  0.5000050E+01  0.7818608E-02  0.2136455E+00
        -11   -1    0    0    0    0  0.00000000000E+00  0.00000000000E+00  0.50000499739E+01  0.50000500000E+01  0.51100000000E-03 0.  1.
         11   -1    0    0    0    0 -0.00000000000E+00 -0.00000000000E+00 -0.50000499739E+01  0.50000500000E+01  0.51100000000E-03 0. -1.
     100001    1    1    2    0    0 -0.21963934373E-01 -0.33728050877E-02  0.24924431217E-02  0.50000500000E+01  0.50000000000E+01 0.  1.
     100001    1    1    2    0    0  0.21963934373E-01  0.33728050877E-02 -0.24924431217E-02  0.50000500000E+01  0.50000000000E+01 0.  0.
</event>
<event>
 4    1  0.4897575E-001  0.5000050E+01  0.7818608E-02  0.2136455E+00
        -11   -1    0    0    0    0  0.00000000000E+00  0.00000000000E+00  0.50000499739E+01  0.50000500000E+01  0.51100000000E-03 0.  1.
         11   -1    0    0    0    0 -0.00000000000E+00 -0.00000000000E+00 -0.50000499739E+01  0.50000500000E+01  0.51100000000E-03 0. -1.
     100001    1    1    2    0    0  0.98027376318E-02 -0.79074898698E-03  0.20081920998E-01  0.50000500000E+01  0.50000000000E+01 0. -1.
     100001    1    1    2    0    0 -0.98027376318E-02  0.79074898698E-03 -0.20081920998E-01  0.50000500000E+01  0.50000000000E+01 0. -1.
</event>
<event>
 4    1  0.4897575E-001  0.5000050E+01  0.7818608E-02  0.2136455E+00
        -11   -1    0    0    0    0  0.00000000000E+00  0.00000000000E+00  0.50000499739E+01  0.50000500000E+01  0.51100000000E-03 0. -1.
         11   -1    0    0    0    0 -0.00000000000E+00 -0.00000000000E+00 -0.50000499739E+01  0.50000500000E+01  0.51100000000E-03 0.  1.
     100001    1    1    2    0    0  0.10872799896E-01  0.17446707535E-01 -0.87975632187E-02  0.50000500000E+01  0.50000000000E+01 0.  1.
     100001    1    1    2    0    0 -0.10872799896E-01 -0.17446707535E-01  0.87975632187E-02  0.50000500000E+01  0.50000000000E+01 0. -1.
</event>
<event>
 4    1  0.4897575E-001  0.5000050E+01  0.7818608E-02  0.2136455E+00
        -11   -1    0    0    0    0  0.00000000000E+00  0.00000000000E+00  0.50000499739E+01  0.50000500000E+01  0.51100000000E-03 0.  1.
         11   -1    0    0    0    0 -0.00000000000E+00 -0.00000000000E+00 -0.50000499739E+01  0.50000500000E+01  0.51100000000E-03 0. -1.
     100001    1    1    2    0    0 -0.41420709149E-02 -0.49032722546E-02  0.21419702839E-01  0.50000500000E+01  0.50000000000E+01 0.  1.
     100001    1    1    2    0    0  0.41420709149E-02  0.49032722546E-02 -0.21419702839E-01  0.50000500000E+01  0.50000000000E+01 0.  1.
</event>
<event>
 4    1  0.4897575E-001  0.5000050E+01  0.7818608E-02  0.2136455E+00
        -11   -1    0    0    0    0  0.00000000000E+00  0.00000000000E+00  0.50000499739E+01  0.50000500000E+01  0.51100000000E-03 0.  1.
         11   -1    0    0    0    0 -0.00000000000E+00 -0.00000000000E+00 -0.50000499739E+01  0.50000500000E+01  0.51100000000E-03 0. -1.
     100001    1    1    2    0    0  0.22007658232E-01 -0.12297243027E-02 -0.37620815074E-02  0.50000500000E+01  0.50000000000E+01 0. -1.
     100001    1    1    2    0    0 -0.22007658232E-01  0.12297243027E-02  0.37620815074E-02  0.50000500000E+01  0.50000000000E+01 0.  0.
</event>
<event>
 4    1  0.4897575E-001  0.5000050E+01  0.7818608E-02  0.2136455E+00
        -11   -1    0    0    0    0  0.00000000000E+00  0.00000000000E+00  0.50000499739E+01  0.50000500000E+01  0.51100000000E-03 0. -1.
         11   -1    0    0    0    0 -0.00000000000E+00 -0.00000000000E+00 -0.50000499739E+01  0.50000500000E+01  0.51100000000E-03 0.  1.
     100001    1    1    2    0    0 -0.18320259322E-01  0.51027293945E-02 -0.11761494424E-01  0.50000500000E+01  0.50000000000E+01 0.  0.
     100001    1    1    2    0    0  0.18320259322E-01 -0.51027293945E-02  0.11761494424E-01  0.50000500000E+01  0.50000000000E+01 0.  0.
</event>
<event>
 4    1  0.4897575E-001  0.5000050E+01  0.7818608E-02  0.2136455E+00
        -11   -1    0    0    0    0  0.00000000000E+00  0.00000000000E+00  0.50000499739E+01  0.50000500000E+01  0.51100000000E-03 0.  1.
         11   -1    0    0    0    0 -0.00000000000E+00 -0.00000000000E+00 -0.50000499739E+01  0.50000500000E+01  0.51100000000E-03 0. -1.
     100001    1    1    2    0    0 -0.13692127960E-02 -0.16271065796E-01 -0.15276785466E-01  0.50000500000E+01  0.50000000000E+01 0.  0.
     100001    1    1    2    0    0  0.13692127960E-02  0.16271065796E-01  0.15276785466E-01  0.50000500000E+01  0.50000000000E+01 0. -1.
</event>
<event>
 4    1  0.4897575E-001  0.5000050E+01  0.7818608E-02  0.2136455E+00
        -11   -1    0    0    0    0  0.00000000000E+00  0.00000000000E+00  0.50000499739E+01  0.50000500000E+01  0.51100000000E-03 0. -1.
         11   -1    0    0    0    0 -0.00000000000E+00 -0.00000000000E+00 -0.50000499739E+01  0.50000500000E+01  0.51100000000E-03 0.  1.
     100001    1    1    2    0    0 -0.22804107784E-02 -0.93295235446E-02  0.20193123015E-01  0.50000500000E+01  0.50000000000E+01 0. -1.
     100001    1    1    2    0    0  0.22804107784E-02  0.93295235446E-02 -0.20193123015E-01  0.50000500000E+01  0.50000000000E+01 0.  0.
</event>
<event>
 4    1  0.4897575E-001  0.5000050E+01  0.7818608E-02  0.2136455E+00
        -11   -1    0    0    0    0  0.00000000000E+00  0.00000000000E+00  0.50000499739E+01  0.50000500000E+01  0.51100000000E-03 0. -1.
         11   -1    0    0    0    0 -0.00000000000E+00 -0.00000000000E+00 -0.50000499739E+01  0.50000500000E+01  0.51100000000E-03 0.  1.
     100001    1    1    2    0    0 -0.12725611410E-01  0.53683308165E-03  0.18378605075E-01  0.50000500000E+01  0.50000000000E+01 0.  0.
     100001    1    1    2    0    0  0.12725611410E-01 -0.53683308165E-03 -0.18378605075E-01  0.50000500000E+01  0.50000000000E+01 0.  1.
</event>
<event>
 4    1  0.4897575E-001  0.5000050E+01  0.7818608E-02  0.2136455E+00
        -11   -1    0    0    0    0  0.00000000000E+00  0.00000000000E+00  0.50000499739E+01  0.50000500000E+01  0.51100000000E-03 0.  1.
         11   -1    0    0    0    0 -0.00000000000E+00 -0.00000000000E+00 -0.50000499739E+01  0.50000500000E+01  0.51100000000E-03 0. -1.
     100001    1    1    2    0    0 -0.12245119015E-01  0.41958422845E-02 -0.18233333975E-01  0.50000500000E+01  0.50000000000E+01 0. -1.
     100001    1    1    2    0    0  0.12245119015E-01 -0.41958422845E-02  0.18233333975E-01  0.50000500000E+01  0.50000000000E+01 0.  0.
</event>
<event>
 4    1  0.4897575E-001  0.5000050E+01  0.7818608E-02  0.2136455E+00
        -11   -1    0    0    0    0  0.00000000000E+00  0.00000000000E+00  0.50000499739E+01  0.50000500000E+01  0.51100000000E-03 0.  1.
         11   -1    0    0    0    0 -0.00000000000E+00 -0.00000000000E+00 -0.50000499739E+01  0.50000500000E+01  0.51100000000E-03 0. -1.
     100001    1    1    2    0    0  0.20079777243E-01  0.82782682109E-02 -0.53174544008E-02  0.50000500000E+01  0.50000000000E+01 0.  1.
     100001    1    1    2    0    0 -0.20079777243E-01 -0.82782682109E-02  0.53174544008E-02  0.50000500000E+01  0.50000000000E+01 0. -1.
</event>
<event>
 4    1  0.4897575E-001  0.5000050E+01  0.7818608E-02  0.2136455E+00
        -11   -1    0    0    0    0  0.00000000000E+00  0.00000000000E+00  0.50000499739E+01  0.50000500000E+01  0.51100000000E-03 0. -1.
         11   -1    0    0    0    0 -0.00000000000E+00 -0.00000000000E+00 -0.50000499739E+01  0.50000500000E+01  0.51100000000E-03 0.  1.
     100001    1    1    2    0    0  0.16555271027E-01 -0.12295169624E-01 -0.86460572018E-02  0.50000500000E+01  0.50000000000E+01 0.  0.
     100001    1    1    2    0    0 -0.16555271027E-01  0.12295169624E-01  0.86460572018E-02  0.50000500000E+01  0.50000000000E+01 0.  1.
</event>
<event>
 4    1  0.4897575E-001  0.5000050E+01  0.7818608E-02  0.2136455E+00
        -11   -1    0    0    0    0  0.00000000000E+00  0.00000000000E+00  0.50000499739E+01  0.50000500000E+01  0.51100000000E-03 0.  1.
         11   -1    0    0    0    0 -0.00000000000E+00 -0.00000000000E+00 -0.50000499739E+01  0.50000500000E+01  0.51100000000E-03 0. -1.
     100001    1    1    2    0    0  0.67222092718E-02 -0.16290318133E-01  0.13763718162E-01  0.50000500000E+01  0.50000000000E+01 0. -1.
     100001    1    1    2    0    0 -0.67222092718E-02  0.16290318133E-01 -0.13763718162E-01  0.50000500000E+01  0.50000000000E+01 0. -1.
</event>
<event>
 4    1  0.4897575E-001  0.5000050E+01  0.7818608E-02  0.2136455E+00
        -11   -1    0    0    0    0  0.00000000000E+00  0.00000000000E+00  0.50000499739E+01  0.50000500000E+01  0.51100000000E-03 0.  1.
         11   -1    0    0    0    0 -0.00000000000E+00 -0.00000000000E+00 -0.50000499739E+01  0.50000500000E+01  0.51100000000E-03 0. -1.
     100001    1    1    2    0    0 -0.19881049622E-01  0.87694679470E-02 -0.52766275063E-02  0.50000500000E+01  0.50000000000E+01 0.  1.
     100001    1    1    2    0    0  0.19881049622E-01 -0.87694679470E-02  0.52766275063E-02  0.50000500000E+01  0.50000000000E+01 0.  0.
</event>
<event>
 4    1  0.4897575E-001  0.5000050E+01  0.7818608E-02  0.2136455E+00
        -11   -1    0    0    0    0  0.00000000000E+00  0.00000000000E+00  0.50000499739E+01  0.50000500000E+01  0.51100000000E-03 0.  1.
         11   -1    0    0    0    0 -0.00000000000E+00 -0.00000000000E+00 -0.50000499739E+01  0.50000500000E+01  0.51100000000E-03 0. -1.
     100001    1    1    2    0    0  0.61984388151E-02 -0.14697428127E-02 -0.21434124949E-01  0.50000500000E+01  0.50000000000E+01 0. -1.
     100001    1    1    2    0    0 -0.61984388151E-02  0.14697428127E-02  0.21434124949E-01  0.50000500000E+01  0.50000000000E+01 0.  0.
</event>
<event>
 4    1  0.4897575E-001  0.5000050E+01  0.7818608E-02  0.2136455E+00
        -11   -1    0    0    0    0  0.00000000000E+00  0.00000000000E+00  0.50000499739E+01  0.50000500000E+01  0.51100000000E-03 0. -1.
         11   -1    0    0    0    0 -0.00000000000E+00 -0.00000000000E+00 -0.50000499739E+01  0.50000500000E+01  0.51100000000E-03 0.  1.
     100001    1    1    2    0    0 -0.40962701475E-02  0.77931700954E-02  0.20554551096E-01  0.50000500000E+01  0.50000000000E+01 0. -1.
     100001    1    1    2    0    0  0.40962701475E-02 -0.77931700954E-02 -0.20554551096E-01  0.50000500000E+01  0.50000000000E+01 0.  0.
</event>
<event>
 4    1  0.4897575E-001  0.5000050E+01  0.7818608E-02  0.2136455E+00
        -11   -1    0    0    0    0  0.00000000000E+00  0.00000000000E+00  0.50000499739E+01  0.50000500000E+01  0.51100000000E-03 0.  1.
         11   -1    0    0    0    0 -0.00000000000E+00 -0.00000000000E+00 -0.50000499739E+01  0.50000500000E+01  0.51100000000E-03 0. -1.
     100001    1    1    2    0    0  0.66948803874E-04 -0.22234624359E-01 -0.23705479274E-02  0.50000500000E+01  0.50000000000E+01 0.  0.
     100001    1    1    2    0    0 -0.66948803874E-04  0.22234624359E-01  0.23705479274E-02  0.50000500000E+01  0.50000000000E+01 0. -1.
</event>
<event>
 4    1  0.4897575E-001  0.5000050E+01  0.7818608E-02  0.2136455E+00
        -11   -1    0    0    0    0  0.00000000000E+00  0.00000000000E+00  0.50000499739E+01  0.50000500000E+01  0.51100000000E-03 0. -1.
         11   -1    0    0    0    0 -0.00000000000E+00 -0.00000000000E+00 -0.50000499739E+01  0.50000500000E+01  0.51100000000E-03 0.  1.
     100001    1    1    2    0    0 -0.32637995287E-02 -0.56197970293E-02  0.21395513408E-01  0.50000500000E+01  0.50000000000E+01 0.  0.
     100001    1    1    2    0    0  0.32637995287E-02  0.56197970293E-02 -0.21395513408E-01  0.50000500000E+01  0.50000000000E+01 0.  1.
</event>
<event>
 4    1  0.4897575E-001  0.5000050E+01  0.7818608E-02  0.2136455E+00
        -11   -1    0    0    0    0  0.00000000000E+00  0.00000000000E+00  0.50000499739E+01  0.50000500000E+01  0.51100000000E-03 0.  1.
         11   -1    0    0    0    0 -0.00000000000E+00 -0.00000000000E+00 -0.50000499739E+01  0.50000500000E+01  0.51100000000E-03 0. -1.
     100001    1    1    2    0    0  0.18779874102E-01 -0.20699624105E-02 -0.11959685795E-01  0.50000500000E+01  0.50000000000E+01 0. -1.
     100001    1    1    2    0    0 -0.18779874102E-01  0.20699624105E-02  0.11959685795E-01  0.50000500000E+01  0.50000000000E+01 0.  1.
</event>
<event>
 4    1  0.4897575E-001  0.5000050E+01  0.7818608E-02  0.2136455E+00
        -11   -1    0    0    0    0  0.00000000000E+00  0.00000000000E+00  0.50000499739E+01  0.50000500000E+01  0.51100000000E-03 0. -1.
         11   -1    0    0    0    0 -0.00000000000E+00 -0.00000000000E+00 -0.50000499739E+01  0.50000500000E+01  0.51100000000E-03 0.  1.
     100001    1    1    2    0    0 -0.19490335451E-01  0.18304275233E-02  0.10806426749E-01  0.50000500000E+01  0.50000000000E+01 0.  1.
     100001    1    1    2    0    0  0.19490335451E-01 -0.18304275233E-02 -0.10806426749E-01  0.50000500000E+01  0.50000000000E+01 0.  1.
</event>
<event>
 4    1  0.4897575E-001  0.5000050E+01  0.7818608E-02  0.2136455E+00
        -11   -1    0    0    0    0  0.00000000000E+00  0.00000000000E+00  0.50000499739E+01  0.50000500000E+01  0.51100000000E-03 0.  1.
         11   -1    0    0    0    0 -0.00000000000E+00 -0.00000000000E+00 -0.50000499739E+01  0.50000500000E+01  0.51100000000E-03 0. -1.
     100001    1    1    2    0    0 -0.12617236964E-01 -0.17984649361E-01  0.41665595830E-02  0.50000500000E+01  0.50000000000E+01 0.  1.
     100001    1    1    2    0    0  0.12617236964E-01  0.17984649361E-01 -0.41665595830E-02  0.50000500000E+01  0.50000000000E+01 0.  0.
</event>
<event>
 4    1  0.4897575E-001  0.5000050E+01  0.7818608E-02  0.2136455E+00
        -11   -1    0    0    0    0  0.00000000000E+00  0.00000000000E+00  0.50000499739E+01  0.50000500000E+01  0.51100000000E-03 0. -1.
         11   -1    0    0    0    0 -0.00000000000E+00 -0.00000000000E+00 -0.50000499739E+01  0.50000500000E+01  0.51100000000E-03 0.  1.
     100001    1    1    2    0    0  0.19534863165E-01  0.10890769715E-02 -0.10826150400E-01  0.50000500000E+01  0.50000000000E+01 0. -1.
     100001    1    1    2    0    0 -0.19534863165E-01 -0.10890769715E-02  0.10826150400E-01  0.50000500000E+01  0.50000000000E+01 0.  0.
</event>
<event>
 4    1  0.4897575E-001  0.5000050E+01  0.7818608E-02  0.2136455E+00
        -11   -1    0    0    0    0  0.00000000000E+00  0.00000000000E+00  0.50000499739E+01  0.50000500000E+01  0.51100000000E-03 0. -1.
         11   -1    0    0    0    0 -0.00000000000E+00 -0.00000000000E+00 -0.50000499739E+01  0.50000500000E+01  0.51100000000E-03 0.  1.
     100001    1    1    2    0    0  0.18441361731E-01  0.11923708896E-01 -0.42123441999E-02  0.50000500000E+01  0.50000000000E+01 0.  1.
     100001    1    1    2    0    0 -0.18441361731E-01 -0.11923708896E-01  0.42123441999E-02  0.50000500000E+01  0.50000000000E+01 0. -1.
</event>
<event>
 4    1  0.4897575E-001  0.5000050E+01  0.7818608E-02  0.2136455E+00
        -11   -1    0    0    0    0  0.00000000000E+00  0.00000000000E+00  0.50000499739E+01  0.50000500000E+01  0.51100000000E-03 0. -1.
         11   -1    0    0    0    0 -0.00000000000E+00 -0.00000000000E+00 -0.50000499739E+01  0.50000500000E+01  0.51100000000E-03 0.  1.
     100001    1    1    2    0    0 -0.20796381696E-01  0.81241912738E-02  0.12290339641E-02  0.50000500000E+01  0.50000000000E+01 0.  1.
     100001    1    1    2    0    0  0.20796381696E-01 -0.81241912738E-02 -0.12290339641E-02  0.50000500000E+01  0.50000000000E+01 0.  0.
</event>
<event>
 4    1  0.4897575E-001  0.5000050E+01  0.7818608E-02  0.2136455E+00
        -11   -1    0    0    0    0  0.00000000000E+00  0.00000000000E+00  0.50000499739E+01  0.50000500000E+01  0.51100000000E-03 0.  1.
         11   -1    0    0    0    0 -0.00000000000E+00 -0.00000000000E+00 -0.50000499739E+01  0.50000500000E+01  0.51100000000E-03 0. -1.
     100001    1    1    2    0    0  0.54226413636E-02 -0.27060526154E-03  0.21691570562E-01  0.50000500000E+01  0.50000000000E+01 0.  1.
     100001    1    1    2    0    0 -0.54226413636E-02  0.27060526154E-03 -0.21691570562E-01  0.50000500000E+01  0.50000000000E+01 0.  0.
</event>
<event>
 4    1  0.4897575E-001  0.5000050E+01  0.7818608E-02  0.2136455E+00
        -11   -1    0    0    0    0  0.00000000000E+00  0.00000000000E+00  0.50000499739E+01  0.50000500000E+01  0.51100000000E-03 0. -1.
         11   -1    0    0    0    0 -0.00000000000E+00 -0.00000000000E+00 -0.50000499739E+01  0.50000500000E+01  0.51100000000E-03 0.  1.
     100001    1    1    2    0    0  0.20769136790E-01 -0.77524774825E-02 -0.29231062038E-02  0.50000500000E+01  0.50000000000E+01 0.  1.
     100001    1    1    2    0    0 -0.20769136790E-01  0.77524774825E-02  0.29231062038E-02  0.50000500000E+01  0.50000000000E+01 0. -1.
</event>
<event>
 4    1  0.4897575E-001  0.5000050E+01  0.7818608E-02  0.2136455E+00
        -11   -1    0    0    0    0  0.00000000000E+00  0.00000000000E+00  0.50000499739E+01  0.50000500000E+01  0.51100000000E-03 0.  1.
         11   -1    0    0    0    0 -0.00000000000E+00 -0.00000000000E+00 -0.50000499739E+01  0.50000500000E+01  0.51100000000E-03 0. -1.
     100001    1    1    2    0    0 -0.72049280372E-03  0.10542164652E-01 -0.19706500312E-01  0.50000500000E+01  0.50000000000E+01 0. -1.
     100001    1    1    2    0    0  0.72049280372E-03 -0.10542164652E-01  0.19706500312E-01  0.50000500000E+01  0.50000000000E+01 0.  0.
</event>
<event>
 4    1  0.4897575E-001  0.5000050E+01  0.7818608E-02  0.2136455E+00
        -11   -1    0    0    0    0  0.00000000000E+00  0.00000000000E+00  0.50000499739E+01  0.50000500000E+01  0.51100000000E-03 0.  1.
         11   -1    0    0    0    0 -0.00000000000E+00 -0.00000000000E+00 -0.50000499739E+01  0.50000500000E+01  0.51100000000E-03 0. -1.
     100001    1    1    2    0    0  0.16667330075E-01  0.11168652075E-03 -0.14906043549E-01  0.50000500000E+01  0.50000000000E+01 0.  0.
     100001    1    1    2    0    0 -0.16667330075E-01 -0.11168652075E-03  0.14906043549E-01  0.50000500000E+01  0.50000000000E+01 0.  0.
</event>
<event>
 4    1  0.4897575E-001  0.5000050E+01  0.7818608E-02  0.2136455E+00
        -11   -1    0    0    0    0  0.00000000000E+00  0.00000000000E+00  0.50000499739E+01  0.50000500000E+01  0.51100000000E-03 0. -1.
         11   -1    0    0    0    0 -0.00000000000E+00 -0.00000000000E+00 -0.50000499739E+01  0.50000500000E+01  0.51100000000E-03 0.  1.
     100001    1    1    2    0    0 -0.10772597907E-01  0.14630719035E-01  0.13034404277E-01  0.50000500000E+01  0.50000000000E+01 0.  0.
     100001    1    1    2    0    0  0.10772597907E-01 -0.14630719035E-01 -0.13034404277E-01  0.50000500000E+01  0.50000000000E+01 0. -1.
</event>
<event>
 4    1  0.4897575E-001  0.5000050E+01  0.7818608E-02  0.2136455E+00
        -11   -1    0    0    0    0  0.00000000000E+00  0.00000000000E+00  0.50000499739E+01  0.50000500000E+01  0.51100000000E-03 0.  1.
         11   -1    0    0    0    0 -0.00000000000E+00 -0.00000000000E+00 -0.50000499739E+01  0.50000500000E+01  0.51100000000E-03 0. -1.
     100001    1    1    2    0    0 -0.13885990529E-01  0.57022544093E-02 -0.16573052274E-01  0.50000500000E+01  0.50000000000E+01 0.  0.
     100001    1    1    2    0    0  0.13885990529E-01 -0.57022544093E-02  0.16573052274E-01  0.50000500000E+01  0.50000000000E+01 0. -1.
</event>
<event>
 4    1  0.4897575E-001  0.5000050E+01  0.7818608E-02  0.2136455E+00
        -11   -1    0    0    0    0  0.00000000000E+00  0.00000000000E+00  0.50000499739E+01  0.50000500000E+01  0.51100000000E-03 0. -1.
         11   -1    0    0    0    0 -0.00000000000E+00 -0.00000000000E+00 -0.50000499739E+01  0.50000500000E+01  0.51100000000E-03 0.  1.
     100001    1    1    2    0    0  0.11871673489E-01 -0.37843873121E-02  0.18567290627E-01  0.50000500000E+01  0.50000000000E+01 0.  1.
     100001    1    1    2    0    0 -0.11871673489E-01  0.37843873121E-02 -0.18567290627E-01  0.50000500000E+01  0.50000000000E+01 0.  0.
</event>
<event>
 4    1  0.4897575E-001  0.5000050E+01  0.7818608E-02  0.2136455E+00
        -11   -1    0    0    0    0  0.00000000000E+00  0.00000000000E+00  0.50000499739E+01  0.50000500000E+01  0.51100000000E-03 0. -1.
         11   -1    0    0    0    0 -0.00000000000E+00 -0.00000000000E+00 -0.50000499739E+01  0.50000500000E+01  0.51100000000E-03 0.  1.
     100001    1    1    2    0    0  0.11134047391E-02 -0.76263175695E-02  0.20990524296E-01  0.50000500000E+01  0.50000000000E+01 0.  0.
     100001    1    1    2    0    0 -0.11134047391E-02  0.76263175695E-02 -0.20990524296E-01  0.50000500000E+01  0.50000000000E+01 0.  0.
</event>
<event>
 4    1  0.4897575E-001  0.5000050E+01  0.7818608E-02  0.2136455E+00
        -11   -1    0    0    0    0  0.00000000000E+00  0.00000000000E+00  0.50000499739E+01  0.50000500000E+01  0.51100000000E-03 0. -1.
         11   -1    0    0    0    0 -0.00000000000E+00 -0.00000000000E+00 -0.50000499739E+01  0.50000500000E+01  0.51100000000E-03 0.  1.
     100001    1    1    2    0    0 -0.18526163741E-01  0.11429032185E-01 -0.51147805758E-02  0.50000500000E+01  0.50000000000E+01 0.  0.
     100001    1    1    2    0    0  0.18526163741E-01 -0.11429032185E-01  0.51147805758E-02  0.50000500000E+01  0.50000000000E+01 0.  1.
</event>
<event>
 4    1  0.4897575E-001  0.5000050E+01  0.7818608E-02  0.2136455E+00
        -11   -1    0    0    0    0  0.00000000000E+00  0.00000000000E+00  0.50000499739E+01  0.50000500000E+01  0.51100000000E-03 0. -1.
         11   -1    0    0    0    0 -0.00000000000E+00 -0.00000000000E+00 -0.50000499739E+01  0.50000500000E+01  0.51100000000E-03 0.  1.
     100001    1    1    2    0    0  0.20786170039E-01 -0.76682740965E-02 -0.30224505799E-02  0.50000500000E+01  0.50000000000E+01 0.  1.
     100001    1    1    2    0    0 -0.20786170039E-01  0.76682740965E-02  0.30224505799E-02  0.50000500000E+01  0.50000000000E+01 0. -1.
</event>
<event>
 4    1  0.4897575E-001  0.5000050E+01  0.7818608E-02  0.2136455E+00
        -11   -1    0    0    0    0  0.00000000000E+00  0.00000000000E+00  0.50000499739E+01  0.50000500000E+01  0.51100000000E-03 0. -1.
         11   -1    0    0    0    0 -0.00000000000E+00 -0.00000000000E+00 -0.50000499739E+01  0.50000500000E+01  0.51100000000E-03 0.  1.
     100001    1    1    2    0    0  0.19773529638E-01  0.10159539082E-01  0.24070295615E-02  0.50000500000E+01  0.50000000000E+01 0. -1.
     100001    1    1    2    0    0 -0.19773529638E-01 -0.10159539082E-01 -0.24070295615E-02  0.50000500000E+01  0.50000000000E+01 0.  1.
</event>
<event>
 4    1  0.4897575E-001  0.5000050E+01  0.7818608E-02  0.2136455E+00
        -11   -1    0    0    0    0  0.00000000000E+00  0.00000000000E+00  0.50000499739E+01  0.50000500000E+01  0.51100000000E-03 0.  1.
         11   -1    0    0    0    0 -0.00000000000E+00 -0.00000000000E+00 -0.50000499739E+01  0.50000500000E+01  0.51100000000E-03 0. -1.
     100001    1    1    2    0    0 -0.35579274502E-02 -0.14035721218E-01  0.17039430217E-01  0.50000500000E+01  0.50000000000E+01 0.  0.
     100001    1    1    2    0    0  0.35579274502E-02  0.14035721218E-01 -0.17039430217E-01  0.50000500000E+01  0.50000000000E+01 0.  0.
</event>
<event>
 4    1  0.4897575E-001  0.5000050E+01  0.7818608E-02  0.2136455E+00
        -11   -1    0    0    0    0  0.00000000000E+00  0.00000000000E+00  0.50000499739E+01  0.50000500000E+01  0.51100000000E-03 0. -1.
         11   -1    0    0    0    0 -0.00000000000E+00 -0.00000000000E+00 -0.50000499739E+01  0.50000500000E+01  0.51100000000E-03 0.  1.
     100001    1    1    2    0    0 -0.20538101734E-01  0.60736098074E-02  0.64265185811E-02  0.50000500000E+01  0.50000000000E+01 0.  0.
     100001    1    1    2    0    0  0.20538101734E-01 -0.60736098074E-02 -0.64265185811E-02  0.50000500000E+01  0.50000000000E+01 0.  0.
</event>
<event>
 4    1  0.4897575E-001  0.5000050E+01  0.7818608E-02  0.2136455E+00
        -11   -1    0    0    0    0  0.00000000000E+00  0.00000000000E+00  0.50000499739E+01  0.50000500000E+01  0.51100000000E-03 0.  1.
         11   -1    0    0    0    0 -0.00000000000E+00 -0.00000000000E+00 -0.50000499739E+01  0.50000500000E+01  0.51100000000E-03 0. -1.
     100001    1    1    2    0    0  0.20983967389E-02  0.20258075398E-01 -0.92309052809E-02  0.50000500000E+01  0.50000000000E+01 0. -1.
     100001    1    1    2    0    0 -0.20983967389E-02 -0.20258075398E-01  0.92309052809E-02  0.50000500000E+01  0.50000000000E+01 0.  1.
</event>
<event>
 4    1  0.4897575E-001  0.5000050E+01  0.7818608E-02  0.2136455E+00
        -11   -1    0    0    0    0  0.00000000000E+00  0.00000000000E+00  0.50000499739E+01  0.50000500000E+01  0.51100000000E-03 0.  1.
         11   -1    0    0    0    0 -0.00000000000E+00 -0.00000000000E+00 -0.50000499739E+01  0.50000500000E+01  0.51100000000E-03 0. -1.
     100001    1    1    2    0    0 -0.20076372795E-01 -0.77432415790E-03 -0.98154051106E-02  0.50000500000E+01  0.50000000000E+01 0.  0.
     100001    1    1    2    0    0  0.20076372795E-01  0.77432415790E-03  0.98154051106E-02  0.50000500000E+01  0.50000000000E+01 0. -1.
</event>
<event>
 4    1  0.4897575E-001  0.5000050E+01  0.7818608E-02  0.2136455E+00
        -11   -1    0    0    0    0  0.00000000000E+00  0.00000000000E+00  0.50000499739E+01  0.50000500000E+01  0.51100000000E-03 0.  1.
         11   -1    0    0    0    0 -0.00000000000E+00 -0.00000000000E+00 -0.50000499739E+01  0.50000500000E+01  0.51100000000E-03 0. -1.
     100001    1    1    2    0    0 -0.10542813814E-02 -0.18909380454E-01 -0.11888074764E-01  0.50000500000E+01  0.50000000000E+01 0. -1.
     100001    1    1    2    0    0  0.10542813814E-02  0.18909380454E-01  0.11888074764E-01  0.50000500000E+01  0.50000000000E+01 0. -1.
</event>
<event>
 4    1  0.4897575E-001  0.5000050E+01  0.7818608E-02  0.2136455E+00
        -11   -1    0    0    0    0  0.00000000000E+00  0.00000000000E+00  0.50000499739E+01  0.50000500000E+01  0.51100000000E-03 0. -1.
         11   -1    0    0    0    0 -0.00000000000E+00 -0.00000000000E+00 -0.50000499739E+01  0.50000500000E+01  0.51100000000E-03 0.  1.
     100001    1    1    2    0    0 -0.10446337987E-01  0.19082600952E-01 -0.51701898971E-02  0.50000500000E+01  0.50000000000E+01 0. -1.
     100001    1    1    2    0    0  0.10446337987E-01 -0.19082600952E-01  0.51701898971E-02  0.50000500000E+01  0.50000000000E+01 0.  1.
</event>
<event>
 4    1  0.4897575E-001  0.5000050E+01  0.7818608E-02  0.2136455E+00
        -11   -1    0    0    0    0  0.00000000000E+00  0.00000000000E+00  0.50000499739E+01  0.50000500000E+01  0.51100000000E-03 0.  1.
         11   -1    0    0    0    0 -0.00000000000E+00 -0.00000000000E+00 -0.50000499739E+01  0.50000500000E+01  0.51100000000E-03 0. -1.
     100001    1    1    2    0    0 -0.19816385710E-01 -0.63762365429E-02 -0.81643716810E-02  0.50000500000E+01  0.50000000000E+01 0. -1.
     100001    1    1    2    0    0  0.19816385710E-01  0.63762365429E-02  0.81643716810E-02  0.50000500000E+01  0.50000000000E+01 0.  1.
</event>
<event>
 4    1  0.4897575E-001  0.5000050E+01  0.7818608E-02  0.2136455E+00
        -11   -1    0    0    0    0  0.00000000000E+00  0.00000000000E+00  0.50000499739E+01  0.50000500000E+01  0.51100000000E-03 0.  1.
         11   -1    0    0    0    0 -0.00000000000E+00 -0.00000000000E+00 -0.50000499739E+01  0.50000500000E+01  0.51100000000E-03 0. -1.
     100001    1    1    2    0    0 -0.27209872478E-02  0.19895376940E-01 -0.98373118684E-02  0.50000500000E+01  0.50000000000E+01 0. -1.
     100001    1    1    2    0    0  0.27209872478E-02 -0.19895376940E-01  0.98373118684E-02  0.50000500000E+01  0.50000000000E+01 0.  1.
</event>
<event>
 4    1  0.4897575E-001  0.5000050E+01  0.7818608E-02  0.2136455E+00
        -11   -1    0    0    0    0  0.00000000000E+00  0.00000000000E+00  0.50000499739E+01  0.50000500000E+01  0.51100000000E-03 0.  1.
         11   -1    0    0    0    0 -0.00000000000E+00 -0.00000000000E+00 -0.50000499739E+01  0.50000500000E+01  0.51100000000E-03 0. -1.
     100001    1    1    2    0    0 -0.16460864867E-02  0.14735986237E-01 -0.16737491117E-01  0.50000500000E+01  0.50000000000E+01 0. -1.
     100001    1    1    2    0    0  0.16460864867E-02 -0.14735986237E-01  0.16737491117E-01  0.50000500000E+01  0.50000000000E+01 0. -1.
</event>
<event>
 4    1  0.4897575E-001  0.5000050E+01  0.7818608E-02  0.2136455E+00
        -11   -1    0    0    0    0  0.00000000000E+00  0.00000000000E+00  0.50000499739E+01  0.50000500000E+01  0.51100000000E-03 0.  1.
         11   -1    0    0    0    0 -0.00000000000E+00 -0.00000000000E+00 -0.50000499739E+01  0.50000500000E+01  0.51100000000E-03 0. -1.
     100001    1    1    2    0    0  0.14981438854E-01 -0.13479636083E-01  0.96880545473E-02  0.50000500000E+01  0.50000000000E+01 0.  1.
     100001    1    1    2    0    0 -0.14981438854E-01  0.13479636083E-01 -0.96880545473E-02  0.50000500000E+01  0.50000000000E+01 0. -1.
</event>
<event>
 4    1  0.4897575E-001  0.5000050E+01  0.7818608E-02  0.2136455E+00
        -11   -1    0    0    0    0  0.00000000000E+00  0.00000000000E+00  0.50000499739E+01  0.50000500000E+01  0.51100000000E-03 0.  1.
         11   -1    0    0    0    0 -0.00000000000E+00 -0.00000000000E+00 -0.50000499739E+01  0.50000500000E+01  0.51100000000E-03 0. -1.
     100001    1    1    2    0    0  0.72033168436E-02  0.10198259645E-01 -0.18550208265E-01  0.50000500000E+01  0.50000000000E+01 0. -1.
     100001    1    1    2    0    0 -0.72033168436E-02 -0.10198259645E-01  0.18550208265E-01  0.50000500000E+01  0.50000000000E+01 0.  0.
</event>
<event>
 4    1  0.4897575E-001  0.5000050E+01  0.7818608E-02  0.2136455E+00
        -11   -1    0    0    0    0  0.00000000000E+00  0.00000000000E+00  0.50000499739E+01  0.50000500000E+01  0.51100000000E-03 0.  1.
         11   -1    0    0    0    0 -0.00000000000E+00 -0.00000000000E+00 -0.50000499739E+01  0.50000500000E+01  0.51100000000E-03 0. -1.
     100001    1    1    2    0    0 -0.20117496653E-02 -0.22158353621E-01 -0.22277181313E-02  0.50000500000E+01  0.50000000000E+01 0.  1.
     100001    1    1    2    0    0  0.20117496653E-02  0.22158353621E-01  0.22277181313E-02  0.50000500000E+01  0.50000000000E+01 0.  0.
</event>
<event>
 4    1  0.4897575E-001  0.5000050E+01  0.7818608E-02  0.2136455E+00
        -11   -1    0    0    0    0  0.00000000000E+00  0.00000000000E+00  0.50000499739E+01  0.50000500000E+01  0.51100000000E-03 0. -1.
         11   -1    0    0    0    0 -0.00000000000E+00 -0.00000000000E+00 -0.50000499739E+01  0.50000500000E+01  0.51100000000E-03 0.  1.
     100001    1    1    2    0    0 -0.99635519016E-02  0.17386521803E-01  0.99216426605E-02  0.50000500000E+01  0.50000000000E+01 0. -1.
     100001    1    1    2    0    0  0.99635519016E-02 -0.17386521803E-01 -0.99216426605E-02  0.50000500000E+01  0.50000000000E+01 0.  1.
</event>
<event>
 4    1  0.4897575E-001  0.5000050E+01  0.7818608E-02  0.2136455E+00
        -11   -1    0    0    0    0  0.00000000000E+00  0.00000000000E+00  0.50000499739E+01  0.50000500000E+01  0.51100000000E-03 0. -1.
         11   -1    0    0    0    0 -0.00000000000E+00 -0.00000000000E+00 -0.50000499739E+01  0.50000500000E+01  0.51100000000E-03 0.  1.
     100001    1    1    2    0    0  0.11826677642E-01  0.18839736448E-01 -0.22795891114E-02  0.50000500000E+01  0.50000000000E+01 0. -1.
     100001    1    1    2    0    0 -0.11826677642E-01 -0.18839736448E-01  0.22795891114E-02  0.50000500000E+01  0.50000000000E+01 0.  1.
</event>
<event>
 4    1  0.4897575E-001  0.5000050E+01  0.7818608E-02  0.2136455E+00
        -11   -1    0    0    0    0  0.00000000000E+00  0.00000000000E+00  0.50000499739E+01  0.50000500000E+01  0.51100000000E-03 0. -1.
         11   -1    0    0    0    0 -0.00000000000E+00 -0.00000000000E+00 -0.50000499739E+01  0.50000500000E+01  0.51100000000E-03 0.  1.
     100001    1    1    2    0    0  0.85851912518E-02 -0.17744958996E-01 -0.10555255630E-01  0.50000500000E+01  0.50000000000E+01 0. -1.
     100001    1    1    2    0    0 -0.85851912518E-02  0.17744958996E-01  0.10555255630E-01  0.50000500000E+01  0.50000000000E+01 0.  0.
</event>
<event>
 4    1  0.4897575E-001  0.5000050E+01  0.7818608E-02  0.2136455E+00
        -11   -1    0    0    0    0  0.00000000000E+00  0.00000000000E+00  0.50000499739E+01  0.50000500000E+01  0.51100000000E-03 0. -1.
         11   -1    0    0    0    0 -0.00000000000E+00 -0.00000000000E+00 -0.50000499739E+01  0.50000500000E+01  0.51100000000E-03 0.  1.
     100001    1    1    2    0    0 -0.10999472190E-01  0.31741674162E-02  0.19207778965E-01  0.50000500000E+01  0.50000000000E+01 0.  0.
     100001    1    1    2    0    0  0.10999472190E-01 -0.31741674162E-02 -0.19207778965E-01  0.50000500000E+01  0.50000000000E+01 0.  0.
</event>
<event>
 4    1  0.4897575E-001  0.5000050E+01  0.7818608E-02  0.2136455E+00
        -11   -1    0    0    0    0  0.00000000000E+00  0.00000000000E+00  0.50000499739E+01  0.50000500000E+01  0.51100000000E-03 0.  1.
         11   -1    0    0    0    0 -0.00000000000E+00 -0.00000000000E+00 -0.50000499739E+01  0.50000500000E+01  0.51100000000E-03 0. -1.
     100001    1    1    2    0    0  0.83622979675E-02  0.12813588729E-01  0.16306023935E-01  0.50000500000E+01  0.50000000000E+01 0. -1.
     100001    1    1    2    0    0 -0.83622979675E-02 -0.12813588729E-01 -0.16306023935E-01  0.50000500000E+01  0.50000000000E+01 0. -1.
</event>
<event>
 4    1  0.4897575E-001  0.5000050E+01  0.7818608E-02  0.2136455E+00
        -11   -1    0    0    0    0  0.00000000000E+00  0.00000000000E+00  0.50000499739E+01  0.50000500000E+01  0.51100000000E-03 0. -1.
         11   -1    0    0    0    0 -0.00000000000E+00 -0.00000000000E+00 -0.50000499739E+01  0.50000500000E+01  0.51100000000E-03 0.  1.
     100001    1    1    2    0    0  0.10147960764E-01 -0.93615528682E-02 -0.17589278559E-01  0.50000500000E+01  0.50000000000E+01 0.  1.
     100001    1    1    2    0    0 -0.10147960764E-01  0.93615528682E-02  0.17589278559E-01  0.50000500000E+01  0.50000000000E+01 0. -1.
</event>
<event>
 4    1  0.4897575E-001  0.5000050E+01  0.7818608E-02  0.2136455E+00
        -11   -1    0    0    0    0  0.00000000000E+00  0.00000000000E+00  0.50000499739E+01  0.50000500000E+01  0.51100000000E-03 0.  1.
         11   -1    0    0    0    0 -0.00000000000E+00 -0.00000000000E+00 -0.50000499739E+01  0.50000500000E+01  0.51100000000E-03 0. -1.
     100001    1    1    2    0    0 -0.11521619932E-01  0.18374022613E-01 -0.54451875231E-02  0.50000500000E+01  0.50000000000E+01 0.  1.
     100001    1    1    2    0    0  0.11521619932E-01 -0.18374022613E-01  0.54451875231E-02  0.50000500000E+01  0.50000000000E+01 0. -1.
</event>
<event>
 4    1  0.4897575E-001  0.5000050E+01  0.7818608E-02  0.2136455E+00
        -11   -1    0    0    0    0  0.00000000000E+00  0.00000000000E+00  0.50000499739E+01  0.50000500000E+01  0.51100000000E-03 0. -1.
         11   -1    0    0    0    0 -0.00000000000E+00 -0.00000000000E+00 -0.50000499739E+01  0.50000500000E+01  0.51100000000E-03 0.  1.
     100001    1    1    2    0    0  0.13514429710E-01 -0.90364529892E-02 -0.15352693803E-01  0.50000500000E+01  0.50000000000E+01 0.  0.
     100001    1    1    2    0    0 -0.13514429710E-01  0.90364529892E-02  0.15352693803E-01  0.50000500000E+01  0.50000000000E+01 0.  0.
</event>
<event>
 4    1  0.4897575E-001  0.5000050E+01  0.7818608E-02  0.2136455E+00
        -11   -1    0    0    0    0  0.00000000000E+00  0.00000000000E+00  0.50000499739E+01  0.50000500000E+01  0.51100000000E-03 0.  1.
         11   -1    0    0    0    0 -0.00000000000E+00 -0.00000000000E+00 -0.50000499739E+01  0.50000500000E+01  0.51100000000E-03 0. -1.
     100001    1    1    2    0    0  0.20602446793E-02  0.13112782778E-01 -0.17994799795E-01  0.50000500000E+01  0.50000000000E+01 0. -1.
     100001    1    1    2    0    0 -0.20602446793E-02 -0.13112782778E-01  0.17994799795E-01  0.50000500000E+01  0.50000000000E+01 0.  1.
</event>
<event>
 4    1  0.4897575E-001  0.5000050E+01  0.7818608E-02  0.2136455E+00
        -11   -1    0    0    0    0  0.00000000000E+00  0.00000000000E+00  0.50000499739E+01  0.50000500000E+01  0.51100000000E-03 0. -1.
         11   -1    0    0    0    0 -0.00000000000E+00 -0.00000000000E+00 -0.50000499739E+01  0.50000500000E+01  0.51100000000E-03 0.  1.
     100001    1    1    2    0    0  0.44427965780E-02 -0.48990752038E-02 -0.21360316494E-01  0.50000500000E+01  0.50000000000E+01 0.  1.
     100001    1    1    2    0    0 -0.44427965780E-02  0.48990752038E-02  0.21360316494E-01  0.50000500000E+01  0.50000000000E+01 0.  0.
</event>
<event>
 4    1  0.4897575E-001  0.5000050E+01  0.7818608E-02  0.2136455E+00
        -11   -1    0    0    0    0  0.00000000000E+00  0.00000000000E+00  0.50000499739E+01  0.50000500000E+01  0.51100000000E-03 0. -1.
         11   -1    0    0    0    0 -0.00000000000E+00 -0.00000000000E+00 -0.50000499739E+01  0.50000500000E+01  0.51100000000E-03 0.  1.
     100001    1    1    2    0    0 -0.11803008228E-01  0.27894658215E-02  0.18785909007E-01  0.50000500000E+01  0.50000000000E+01 0.  0.
     100001    1    1    2    0    0  0.11803008228E-01 -0.27894658215E-02 -0.18785909007E-01  0.50000500000E+01  0.50000000000E+01 0.  0.
</event>
<event>
 4    1  0.4897575E-001  0.5000050E+01  0.7818608E-02  0.2136455E+00
        -11   -1    0    0    0    0  0.00000000000E+00  0.00000000000E+00  0.50000499739E+01  0.50000500000E+01  0.51100000000E-03 0. -1.
         11   -1    0    0    0    0 -0.00000000000E+00 -0.00000000000E+00 -0.50000499739E+01  0.50000500000E+01  0.51100000000E-03 0.  1.
     100001    1    1    2    0    0 -0.77259654759E-02 -0.45830528854E-02 -0.20477001336E-01  0.50000500000E+01  0.50000000000E+01 0.  1.
     100001    1    1    2    0    0  0.77259654759E-02  0.45830528854E-02  0.20477001336E-01  0.50000500000E+01  0.50000000000E+01 0.  0.
</event>
<event>
 4    1  0.4897575E-001  0.5000050E+01  0.7818608E-02  0.2136455E+00
        -11   -1    0    0    0    0  0.00000000000E+00  0.00000000000E+00  0.50000499739E+01  0.50000500000E+01  0.51100000000E-03 0. -1.
         11   -1    0    0    0    0 -0.00000000000E+00 -0.00000000000E+00 -0.50000499739E+01  0.50000500000E+01  0.51100000000E-03 0.  1.
     100001    1    1    2    0    0  0.75413417532E-02  0.77234157700E-02  0.19582632954E-01  0.50000500000E+01  0.50000000000E+01 0.  0.
     100001    1    1    2    0    0 -0.75413417532E-02 -0.77234157700E-02 -0.19582632954E-01  0.50000500000E+01  0.50000000000E+01 0.  1.
</event>
<event>
 4    1  0.4897575E-001  0.5000050E+01  0.7818608E-02  0.2136455E+00
        -11   -1    0    0    0    0  0.00000000000E+00  0.00000000000E+00  0.50000499739E+01  0.50000500000E+01  0.51100000000E-03 0.  1.
         11   -1    0    0    0    0 -0.00000000000E+00 -0.00000000000E+00 -0.50000499739E+01  0.50000500000E+01  0.51100000000E-03 0. -1.
     100001    1    1    2    0    0  0.49202818046E-02 -0.16956454379E-01 -0.13721223774E-01  0.50000500000E+01  0.50000000000E+01 0.  0.
     100001    1    1    2    0    0 -0.49202818046E-02  0.16956454379E-01  0.13721223774E-01  0.50000500000E+01  0.50000000000E+01 0. -1.
</event>
<event>
 4    1  0.4897575E-001  0.5000050E+01  0.7818608E-02  0.2136455E+00
        -11   -1    0    0    0    0  0.00000000000E+00  0.00000000000E+00  0.50000499739E+01  0.50000500000E+01  0.51100000000E-03 0. -1.
         11   -1    0    0    0    0 -0.00000000000E+00 -0.00000000000E+00 -0.50000499739E+01  0.50000500000E+01  0.51100000000E-03 0.  1.
     100001    1    1    2    0    0 -0.31629572539E-02  0.19998297398E-01 -0.94903267912E-02  0.50000500000E+01  0.50000000000E+01 0.  1.
     100001    1    1    2    0    0  0.31629572539E-02 -0.19998297398E-01  0.94903267912E-02  0.50000500000E+01  0.50000000000E+01 0. -1.
</event>
<event>
 4    1  0.4897575E-001  0.5000050E+01  0.7818608E-02  0.2136455E+00
        -11   -1    0    0    0    0  0.00000000000E+00  0.00000000000E+00  0.50000499739E+01  0.50000500000E+01  0.51100000000E-03 0. -1.
         11   -1    0    0    0    0 -0.00000000000E+00 -0.00000000000E+00 -0.50000499739E+01  0.50000500000E+01  0.51100000000E-03 0.  1.
     100001    1    1    2    0    0 -0.17343964006E-01  0.14005321252E-01  0.17436711819E-02  0.50000500000E+01  0.50000000000E+01 0.  1.
     100001    1    1    2    0    0  0.17343964006E-01 -0.14005321252E-01 -0.17436711819E-02  0.50000500000E+01  0.50000000000E+01 0. -1.
</event>
<event>
 4    1  0.4897575E-001  0.5000050E+01  0.7818608E-02  0.2136455E+00
        -11   -1    0    0    0    0  0.00000000000E+00  0.00000000000E+00  0.50000499739E+01  0.50000500000E+01  0.51100000000E-03 0.  1.
         11   -1    0    0    0    0 -0.00000000000E+00 -0.00000000000E+00 -0.50000499739E+01  0.50000500000E+01  0.51100000000E-03 0. -1.
     100001    1    1    2    0    0  0.16807269089E-01  0.14576929963E-01 -0.22430600999E-02  0.50000500000E+01  0.50000000000E+01 0.  0.
     100001    1    1    2    0    0 -0.16807269089E-01 -0.14576929963E-01  0.22430600999E-02  0.50000500000E+01  0.50000000000E+01 0. -1.
</event>
<event>
 4    1  0.4897575E-001  0.5000050E+01  0.7818608E-02  0.2136455E+00
        -11   -1    0    0    0    0  0.00000000000E+00  0.00000000000E+00  0.50000499739E+01  0.50000500000E+01  0.51100000000E-03 0. -1.
         11   -1    0    0    0    0 -0.00000000000E+00 -0.00000000000E+00 -0.50000499739E+01  0.50000500000E+01  0.51100000000E-03 0.  1.
     100001    1    1    2    0    0 -0.10952992939E-02 -0.83118383372E-02 -0.20729596304E-01  0.50000500000E+01  0.50000000000E+01 0. -1.
     100001    1    1    2    0    0  0.10952992939E-02  0.83118383372E-02  0.20729596304E-01  0.50000500000E+01  0.50000000000E+01 0. -1.
</event>
<event>
 4    1  0.4897575E-001  0.5000050E+01  0.7818608E-02  0.2136455E+00
        -11   -1    0    0    0    0  0.00000000000E+00  0.00000000000E+00  0.50000499739E+01  0.50000500000E+01  0.51100000000E-03 0. -1.
         11   -1    0    0    0    0 -0.00000000000E+00 -0.00000000000E+00 -0.50000499739E+01  0.50000500000E+01  0.51100000000E-03 0.  1.
     100001    1    1    2    0    0  0.12065383911E-01  0.14235480686E-01 -0.12319906684E-01  0.50000500000E+01  0.50000000000E+01 0.  0.
     100001    1    1    2    0    0 -0.12065383911E-01 -0.14235480686E-01  0.12319906684E-01  0.50000500000E+01  0.50000000000E+01 0.  1.
</event>
<event>
 4    1  0.4897575E-001  0.5000050E+01  0.7818608E-02  0.2136455E+00
        -11   -1    0    0    0    0  0.00000000000E+00  0.00000000000E+00  0.50000499739E+01  0.50000500000E+01  0.51100000000E-03 0.  1.
         11   -1    0    0    0    0 -0.00000000000E+00 -0.00000000000E+00 -0.50000499739E+01  0.50000500000E+01  0.51100000000E-03 0. -1.
     100001    1    1    2    0    0 -0.15356785965E-01  0.10493979943E-01 -0.12411607864E-01  0.50000500000E+01  0.50000000000E+01 0.  0.
     100001    1    1    2    0    0  0.15356785965E-01 -0.10493979943E-01  0.12411607864E-01  0.50000500000E+01  0.50000000000E+01 0. -1.
</event>
<event>
 4    1  0.4897575E-001  0.5000050E+01  0.7818608E-02  0.2136455E+00
        -11   -1    0    0    0    0  0.00000000000E+00  0.00000000000E+00  0.50000499739E+01  0.50000500000E+01  0.51100000000E-03 0.  1.
         11   -1    0    0    0    0 -0.00000000000E+00 -0.00000000000E+00 -0.50000499739E+01  0.50000500000E+01  0.51100000000E-03 0. -1.
     100001    1    1    2    0    0 -0.17829244398E-01 -0.11305872081E-01  0.73687041390E-02  0.50000500000E+01  0.50000000000E+01 0.  0.
     100001    1    1    2    0    0  0.17829244398E-01  0.11305872081E-01 -0.73687041390E-02  0.50000500000E+01  0.50000000000E+01 0.  1.
</event>
<event>
 4    1  0.4897575E-001  0.5000050E+01  0.7818608E-02  0.2136455E+00
        -11   -1    0    0    0    0  0.00000000000E+00  0.00000000000E+00  0.50000499739E+01  0.50000500000E+01  0.51100000000E-03 0. -1.
         11   -1    0    0    0    0 -0.00000000000E+00 -0.00000000000E+00 -0.50000499739E+01  0.50000500000E+01  0.51100000000E-03 0.  1.
     100001    1    1    2    0    0  0.53875923822E-02 -0.16601873506E-01  0.13976914696E-01  0.50000500000E+01  0.50000000000E+01 0.  0.
     100001    1    1    2    0    0 -0.53875923822E-02  0.16601873506E-01 -0.13976914696E-01  0.50000500000E+01  0.50000000000E+01 0.  0.
</event>
<event>
 4    1  0.4897575E-001  0.5000050E+01  0.7818608E-02  0.2136455E+00
        -11   -1    0    0    0    0  0.00000000000E+00  0.00000000000E+00  0.50000499739E+01  0.50000500000E+01  0.51100000000E-03 0. -1.
         11   -1    0    0    0    0 -0.00000000000E+00 -0.00000000000E+00 -0.50000499739E+01  0.50000500000E+01  0.51100000000E-03 0.  1.
     100001    1    1    2    0    0 -0.69823718165E-02  0.20953162024E-01 -0.34948512136E-02  0.50000500000E+01  0.50000000000E+01 0.  1.
     100001    1    1    2    0    0  0.69823718165E-02 -0.20953162024E-01  0.34948512136E-02  0.50000500000E+01  0.50000000000E+01 0. -1.
</event>
<event>
 4    1  0.4897575E-001  0.5000050E+01  0.7818608E-02  0.2136455E+00
        -11   -1    0    0    0    0  0.00000000000E+00  0.00000000000E+00  0.50000499739E+01  0.50000500000E+01  0.51100000000E-03 0. -1.
         11   -1    0    0    0    0 -0.00000000000E+00 -0.00000000000E+00 -0.50000499739E+01  0.50000500000E+01  0.51100000000E-03 0.  1.
     100001    1    1    2    0    0 -0.88125988271E-02 -0.18958994527E-01  0.79307709868E-02  0.50000500000E+01  0.50000000000E+01 0. -1.
     100001    1    1    2    0    0  0.88125988271E-02  0.18958994527E-01 -0.79307709868E-02  0.50000500000E+01  0.50000000000E+01 0.  1.
</event>
<event>
 4    1  0.4897575E-001  0.5000050E+01  0.7818608E-02  0.2136455E+00
        -11   -1    0    0    0    0  0.00000000000E+00  0.00000000000E+00  0.50000499739E+01  0.50000500000E+01  0.51100000000E-03 0.  1.
         11   -1    0    0    0    0 -0.00000000000E+00 -0.00000000000E+00 -0.50000499739E+01  0.50000500000E+01  0.51100000000E-03 0. -1.
     100001    1    1    2    0    0  0.10572730157E-01  0.87688920944E-02 -0.17644444125E-01  0.50000500000E+01  0.50000000000E+01 0. -1.
     100001    1    1    2    0    0 -0.10572730157E-01 -0.87688920944E-02  0.17644444125E-01  0.50000500000E+01  0.50000000000E+01 0.  0.
</event>
<event>
 4    1  0.4897575E-001  0.5000050E+01  0.7818608E-02  0.2136455E+00
        -11   -1    0    0    0    0  0.00000000000E+00  0.00000000000E+00  0.50000499739E+01  0.50000500000E+01  0.51100000000E-03 0.  1.
         11   -1    0    0    0    0 -0.00000000000E+00 -0.00000000000E+00 -0.50000499739E+01  0.50000500000E+01  0.51100000000E-03 0. -1.
     100001    1    1    2    0    0 -0.20199240392E-01  0.46650306210E-02 -0.83803745072E-02  0.50000500000E+01  0.50000000000E+01 0. -1.
     100001    1    1    2    0    0  0.20199240392E-01 -0.46650306210E-02  0.83803745072E-02  0.50000500000E+01  0.50000000000E+01 0.  1.
</event>
<event>
 4    1  0.4897575E-001  0.5000050E+01  0.7818608E-02  0.2136455E+00
        -11   -1    0    0    0    0  0.00000000000E+00  0.00000000000E+00  0.50000499739E+01  0.50000500000E+01  0.51100000000E-03 0.  1.
         11   -1    0    0    0    0 -0.00000000000E+00 -0.00000000000E+00 -0.50000499739E+01  0.50000500000E+01  0.51100000000E-03 0. -1.
     100001    1    1    2    0    0  0.17075058561E-01  0.14059678543E-01 -0.32818157157E-02  0.50000500000E+01  0.50000000000E+01 0.  1.
     100001    1    1    2    0    0 -0.17075058561E-01 -0.14059678543E-01  0.32818157157E-02  0.50000500000E+01  0.50000000000E+01 0.  0.
</event>
<event>
 4    1  0.4897575E-001  0.5000050E+01  0.7818608E-02  0.2136455E+00
        -11   -1    0    0    0    0  0.00000000000E+00  0.00000000000E+00  0.50000499739E+01  0.50000500000E+01  0.51100000000E-03 0. -1.
         11   -1    0    0    0    0 -0.00000000000E+00 -0.00000000000E+00 -0.50000499739E+01  0.50000500000E+01  0.51100000000E-03 0.  1.
     100001    1    1    2    0    0  0.14758431163E-01 -0.16757404441E-01 -0.11749919139E-02  0.50000500000E+01  0.50000000000E+01 0.  1.
     100001    1    1    2    0    0 -0.14758431163E-01  0.16757404441E-01  0.11749919139E-02  0.50000500000E+01  0.50000000000E+01 0. -1.
</event>
<event>
 4    1  0.4897575E-001  0.5000050E+01  0.7818608E-02  0.2136455E+00
        -11   -1    0    0    0    0  0.00000000000E+00  0.00000000000E+00  0.50000499739E+01  0.50000500000E+01  0.51100000000E-03 0.  1.
         11   -1    0    0    0    0 -0.00000000000E+00 -0.00000000000E+00 -0.50000499739E+01  0.50000500000E+01  0.51100000000E-03 0. -1.
     100001    1    1    2    0    0 -0.15444142514E-01  0.97790107603E-02  0.12878350459E-01  0.50000500000E+01  0.50000000000E+01 0. -1.
     100001    1    1    2    0    0  0.15444142514E-01 -0.97790107603E-02 -0.12878350459E-01  0.50000500000E+01  0.50000000000E+01 0. -1.
</event>
<event>
 4    1  0.4897575E-001  0.5000050E+01  0.7818608E-02  0.2136455E+00
        -11   -1    0    0    0    0  0.00000000000E+00  0.00000000000E+00  0.50000499739E+01  0.50000500000E+01  0.51100000000E-03 0. -1.
         11   -1    0    0    0    0 -0.00000000000E+00 -0.00000000000E+00 -0.50000499739E+01  0.50000500000E+01  0.51100000000E-03 0.  1.
     100001    1    1    2    0    0 -0.19811464788E-01 -0.59739202308E-02  0.84747058954E-02  0.50000500000E+01  0.50000000000E+01 0. -1.
     100001    1    1    2    0    0  0.19811464788E-01  0.59739202308E-02 -0.84747058954E-02  0.50000500000E+01  0.50000000000E+01 0.  1.
</event>
<event>
 4    1  0.4897575E-001  0.5000050E+01  0.7818608E-02  0.2136455E+00
        -11   -1    0    0    0    0  0.00000000000E+00  0.00000000000E+00  0.50000499739E+01  0.50000500000E+01  0.51100000000E-03 0. -1.
         11   -1    0    0    0    0 -0.00000000000E+00 -0.00000000000E+00 -0.50000499739E+01  0.50000500000E+01  0.51100000000E-03 0.  1.
     100001    1    1    2    0    0  0.33807069588E-02  0.11504050314E-01  0.18874060158E-01  0.50000500000E+01  0.50000000000E+01 0. -1.
     100001    1    1    2    0    0 -0.33807069588E-02 -0.11504050314E-01 -0.18874060158E-01  0.50000500000E+01  0.50000000000E+01 0.  0.
</event>
<event>
 4    1  0.4897575E-001  0.5000050E+01  0.7818608E-02  0.2136455E+00
        -11   -1    0    0    0    0  0.00000000000E+00  0.00000000000E+00  0.50000499739E+01  0.50000500000E+01  0.51100000000E-03 0.  1.
         11   -1    0    0    0    0 -0.00000000000E+00 -0.00000000000E+00 -0.50000499739E+01  0.50000500000E+01  0.51100000000E-03 0. -1.
     100001    1    1    2    0    0  0.15936516598E-02 -0.12534767265E-01  0.18448370768E-01  0.50000500000E+01  0.50000000000E+01 0.  0.
     100001    1    1    2    0    0 -0.15936516598E-02  0.12534767265E-01 -0.18448370768E-01  0.50000500000E+01  0.50000000000E+01 0. -1.
</event>
<event>
 4    1  0.4897575E-001  0.5000050E+01  0.7818608E-02  0.2136455E+00
        -11   -1    0    0    0    0  0.00000000000E+00  0.00000000000E+00  0.50000499739E+01  0.50000500000E+01  0.51100000000E-03 0. -1.
         11   -1    0    0    0    0 -0.00000000000E+00 -0.00000000000E+00 -0.50000499739E+01  0.50000500000E+01  0.51100000000E-03 0.  1.
     100001    1    1    2    0    0  0.15960739160E-02 -0.19516135842E-01  0.10797013006E-01  0.50000500000E+01  0.50000000000E+01 0. -1.
     100001    1    1    2    0    0 -0.15960739160E-02  0.19516135842E-01 -0.10797013006E-01  0.50000500000E+01  0.50000000000E+01 0.  1.
</event>
<event>
 4    1  0.4897575E-001  0.5000050E+01  0.7818608E-02  0.2136455E+00
        -11   -1    0    0    0    0  0.00000000000E+00  0.00000000000E+00  0.50000499739E+01  0.50000500000E+01  0.51100000000E-03 0.  1.
         11   -1    0    0    0    0 -0.00000000000E+00 -0.00000000000E+00 -0.50000499739E+01  0.50000500000E+01  0.51100000000E-03 0. -1.
     100001    1    1    2    0    0  0.75198001574E-02  0.17834030764E-01  0.11198323637E-01  0.50000500000E+01  0.50000000000E+01 0.  0.
     100001    1    1    2    0    0 -0.75198001574E-02 -0.17834030764E-01 -0.11198323637E-01  0.50000500000E+01  0.50000000000E+01 0.  0.
</event>
<event>
 4    1  0.4897575E-001  0.5000050E+01  0.7818608E-02  0.2136455E+00
        -11   -1    0    0    0    0  0.00000000000E+00  0.00000000000E+00  0.50000499739E+01  0.50000500000E+01  0.51100000000E-03 0. -1.
         11   -1    0    0    0    0 -0.00000000000E+00 -0.00000000000E+00 -0.50000499739E+01  0.50000500000E+01  0.51100000000E-03 0.  1.
     100001    1    1    2    0    0 -0.23727798862E-03  0.22353196419E-01  0.52991415727E-03  0.50000500000E+01  0.50000000000E+01 0.  0.
     100001    1    1    2    0    0  0.23727798862E-03 -0.22353196419E-01 -0.52991415727E-03  0.50000500000E+01  0.50000000000E+01 0. -1.
</event>
<event>
 4    1  0.4897575E-001  0.5000050E+01  0.7818608E-02  0.2136455E+00
        -11   -1    0    0    0    0  0.00000000000E+00  0.00000000000E+00  0.50000499739E+01  0.50000500000E+01  0.51100000000E-03 0.  1.
         11   -1    0    0    0    0 -0.00000000000E+00 -0.00000000000E+00 -0.50000499739E+01  0.50000500000E+01  0.51100000000E-03 0. -1.
     100001    1    1    2    0    0  0.19004180870E-01  0.56138909880E-03  0.11769811033E-01  0.50000500000E+01  0.50000000000E+01 0.  1.
     100001    1    1    2    0    0 -0.19004180870E-01 -0.56138909880E-03 -0.11769811033E-01  0.50000500000E+01  0.50000000000E+01 0. -1.
</event>
<event>
 4    1  0.4897575E-001  0.5000050E+01  0.7818608E-02  0.2136455E+00
        -11   -1    0    0    0    0  0.00000000000E+00  0.00000000000E+00  0.50000499739E+01  0.50000500000E+01  0.51100000000E-03 0. -1.
         11   -1    0    0    0    0 -0.00000000000E+00 -0.00000000000E+00 -0.50000499739E+01  0.50000500000E+01  0.51100000000E-03 0.  1.
     100001    1    1    2    0    0  0.43537390007E-03 -0.19320028464E-01 -0.11249419972E-01  0.50000500000E+01  0.50000000000E+01 0. -1.
     100001    1    1    2    0    0 -0.43537390007E-03  0.19320028464E-01  0.11249419972E-01  0.50000500000E+01  0.50000000000E+01 0. -1.
</event>
<event>
 4    1  0.4897575E-001  0.5000050E+01  0.7818608E-02  0.2136455E+00
        -11   -1    0    0    0    0  0.00000000000E+00  0.00000000000E+00  0.50000499739E+01  0.50000500000E+01  0.51100000000E-03 0. -1.
         11   -1    0    0    0    0 -0.00000000000E+00 -0.00000000000E+00 -0.50000499739E+01  0.50000500000E+01  0.51100000000E-03 0.  1.
     100001    1    1    2    0    0  0.17713233059E-01  0.13403854992E-01  0.25652574845E-02  0.50000500000E+01  0.50000000000E+01 0. -1.
     100001    1    1    2    0    0 -0.17713233059E-01 -0.13403854992E-01 -0.25652574845E-02  0.50000500000E+01  0.50000000000E+01 0.  1.
</event>
<event>
 4    1  0.4897575E-001  0.5000050E+01  0.7818608E-02  0.2136455E+00
        -11   -1    0    0    0    0  0.00000000000E+00  0.00000000000E+00  0.50000499739E+01  0.50000500000E+01  0.51100000000E-03 0. -1.
         11   -1    0    0    0    0 -0.00000000000E+00 -0.00000000000E+00 -0.50000499739E+01  0.50000500000E+01  0.51100000000E-03 0.  1.
     100001    1    1    2    0    0 -0.15315404267E-01  0.15850975190E-01  0.37666268271E-02  0.50000500000E+01  0.50000000000E+01 0.  0.
     100001    1    1    2    0    0  0.15315404267E-01 -0.15850975190E-01 -0.37666268271E-02  0.50000500000E+01  0.50000000000E+01 0.  0.
</event>
<event>
 4    1  0.4897575E-001  0.5000050E+01  0.7818608E-02  0.2136455E+00
        -11   -1    0    0    0    0  0.00000000000E+00  0.00000000000E+00  0.50000499739E+01  0.50000500000E+01  0.51100000000E-03 0. -1.
         11   -1    0    0    0    0 -0.00000000000E+00 -0.00000000000E+00 -0.50000499739E+01  0.50000500000E+01  0.51100000000E-03 0.  1.
     100001    1    1    2    0    0  0.80725478100E-02 -0.93283003117E-02  0.18649913811E-01  0.50000500000E+01  0.50000000000E+01 0. -1.
     100001    1    1    2    0    0 -0.80725478100E-02  0.93283003117E-02 -0.18649913811E-01  0.50000500000E+01  0.50000000000E+01 0.  1.
</event>
<event>
 4    1  0.4897575E-001  0.5000050E+01  0.7818608E-02  0.2136455E+00
        -11   -1    0    0    0    0  0.00000000000E+00  0.00000000000E+00  0.50000499739E+01  0.50000500000E+01  0.51100000000E-03 0. -1.
         11   -1    0    0    0    0 -0.00000000000E+00 -0.00000000000E+00 -0.50000499739E+01  0.50000500000E+01  0.51100000000E-03 0.  1.
     100001    1    1    2    0    0  0.27492242289E-02  0.62059215974E-02  0.21305651909E-01  0.50000500000E+01  0.50000000000E+01 0. -1.
     100001    1    1    2    0    0 -0.27492242289E-02 -0.62059215974E-02 -0.21305651909E-01  0.50000500000E+01  0.50000000000E+01 0.  0.
</event>
<event>
 4    1  0.4897575E-001  0.5000050E+01  0.7818608E-02  0.2136455E+00
        -11   -1    0    0    0    0  0.00000000000E+00  0.00000000000E+00  0.50000499739E+01  0.50000500000E+01  0.51100000000E-03 0.  1.
         11   -1    0    0    0    0 -0.00000000000E+00 -0.00000000000E+00 -0.50000499739E+01  0.50000500000E+01  0.51100000000E-03 0. -1.
     100001    1    1    2    0    0  0.66805871820E-02 -0.20966577509E-01  0.39717606254E-02  0.50000500000E+01  0.50000000000E+01 0. -1.
     100001    1    1    2    0    0 -0.66805871820E-02  0.20966577509E-01 -0.39717606254E-02  0.50000500000E+01  0.50000000000E+01 0.  0.
</event>
<event>
 4    1  0.4897575E-001  0.5000050E+01  0.7818608E-02  0.2136455E+00
        -11   -1    0    0    0    0  0.00000000000E+00  0.00000000000E+00  0.50000499739E+01  0.50000500000E+01  0.51100000000E-03 0.  1.
         11   -1    0    0    0    0 -0.00000000000E+00 -0.00000000000E+00 -0.50000499739E+01  0.50000500000E+01  0.51100000000E-03 0. -1.
     100001    1    1    2    0    0  0.48907001302E-02 -0.16098229810E-01  0.14728562361E-01  0.50000500000E+01  0.50000000000E+01 0.  1.
     100001    1    1    2    0    0 -0.48907001302E-02  0.16098229810E-01 -0.14728562361E-01  0.50000500000E+01  0.50000000000E+01 0. -1.
</event>
<event>
 4    1  0.4897575E-001  0.5000050E+01  0.7818608E-02  0.2136455E+00
        -11   -1    0    0    0    0  0.00000000000E+00  0.00000000000E+00  0.50000499739E+01  0.50000500000E+01  0.51100000000E-03 0.  1.
         11   -1    0    0    0    0 -0.00000000000E+00 -0.00000000000E+00 -0.50000499739E+01  0.50000500000E+01  0.51100000000E-03 0. -1.
     100001    1    1    2    0    0 -0.14710341225E-01 -0.42073479044E-02 -0.16306642348E-01  0.50000500000E+01  0.50000000000E+01 0.  0.
     100001    1    1    2    0    0  0.14710341225E-01  0.42073479044E-02  0.16306642348E-01  0.50000500000E+01  0.50000000000E+01 0.  0.
</event>
<event>
 4    1  0.4897575E-001  0.5000050E+01  0.7818608E-02  0.2136455E+00
        -11   -1    0    0    0    0  0.00000000000E+00  0.00000000000E+00  0.50000499739E+01  0.50000500000E+01  0.51100000000E-03 0. -1.
         11   -1    0    0    0    0 -0.00000000000E+00 -0.00000000000E+00 -0.50000499739E+01  0.50000500000E+01  0.51100000000E-03 0.  1.
     100001    1    1    2    0    0 -0.40344630243E-03 -0.19473485961E-01  0.10982853709E-01  0.50000500000E+01  0.50000000000E+01 0.  1.
     100001    1    1    2    0    0  0.40344630243E-03  0.19473485961E-01 -0.10982853709E-01  0.50000500000E+01  0.50000000000E+01 0.  1.
</event>
<event>
 4    1  0.4897575E-001  0.5000050E+01  0.7818608E-02  0.2136455E+00
        -11   -1    0    0    0    0  0.00000000000E+00  0.00000000000E+00  0.50000499739E+01  0.50000500000E+01  0.51100000000E-03 0. -1.
         11   -1    0    0    0    0 -0.00000000000E+00 -0.00000000000E+00 -0.50000499739E+01  0.50000500000E+01  0.51100000000E-03 0.  1.
     100001    1    1    2    0    0  0.71988574031E-02  0.18853751375E-01  0.96288634419E-02  0.50000500000E+01  0.50000000000E+01 0.  1.
     100001    1    1    2    0    0 -0.71988574031E-02 -0.18853751375E-01 -0.96288634419E-02  0.50000500000E+01  0.50000000000E+01 0.  0.
</event>
<event>
 4    1  0.4897575E-001  0.5000050E+01  0.7818608E-02  0.2136455E+00
        -11   -1    0    0    0    0  0.00000000000E+00  0.00000000000E+00  0.50000499739E+01  0.50000500000E+01  0.51100000000E-03 0.  1.
         11   -1    0    0    0    0 -0.00000000000E+00 -0.00000000000E+00 -0.50000499739E+01  0.50000500000E+01  0.51100000000E-03 0. -1.
     100001    1    1    2    0    0  0.83306094112E-02 -0.17904342000E-01 -0.10489899160E-01  0.50000500000E+01  0.50000000000E+01 0. -1.
     100001    1    1    2    0    0 -0.83306094112E-02  0.17904342000E-01  0.10489899160E-01  0.50000500000E+01  0.50000000000E+01 0.  1.
</event>
<event>
 4    1  0.4897575E-001  0.5000050E+01  0.7818608E-02  0.2136455E+00
        -11   -1    0    0    0    0  0.00000000000E+00  0.00000000000E+00  0.50000499739E+01  0.50000500000E+01  0.51100000000E-03 0. -1.
         11   -1    0    0    0    0 -0.00000000000E+00 -0.00000000000E+00 -0.50000499739E+01  0.50000500000E+01  0.51100000000E-03 0.  1.
     100001    1    1    2    0    0 -0.22280628709E-01  0.84090016515E-03  0.16938037767E-02  0.50000500000E+01  0.50000000000E+01 0.  1.
     100001    1    1    2    0    0  0.22280628709E-01 -0.84090016515E-03 -0.16938037767E-02  0.50000500000E+01  0.50000000000E+01 0. -1.
</event>
<event>
 4    1  0.4897575E-001  0.5000050E+01  0.7818608E-02  0.2136455E+00
        -11   -1    0    0    0    0  0.00000000000E+00  0.00000000000E+00  0.50000499739E+01  0.50000500000E+01  0.51100000000E-03 0. -1.
         11   -1    0    0    0    0 -0.00000000000E+00 -0.00000000000E+00 -0.50000499739E+01  0.50000500000E+01  0.51100000000E-03 0.  1.
     100001    1    1    2    0    0 -0.66315280633E-02  0.21052331760E-01  0.35811538683E-02  0.50000500000E+01  0.50000000000E+01 0.  0.
     100001    1    1    2    0    0  0.66315280633E-02 -0.21052331760E-01 -0.35811538683E-02  0.50000500000E+01  0.50000000000E+01 0. -1.
</event>
<event>
 4    1  0.4897575E-001  0.5000050E+01  0.7818608E-02  0.2136455E+00
        -11   -1    0    0    0    0  0.00000000000E+00  0.00000000000E+00  0.50000499739E+01  0.50000500000E+01  0.51100000000E-03 0. -1.
         11   -1    0    0    0    0 -0.00000000000E+00 -0.00000000000E+00 -0.50000499739E+01  0.50000500000E+01  0.51100000000E-03 0.  1.
     100001    1    1    2    0    0 -0.44090073044E-02 -0.11550622132E-01 -0.18631862036E-01  0.50000500000E+01  0.50000000000E+01 0.  0.
     100001    1    1    2    0    0  0.44090073044E-02  0.11550622132E-01  0.18631862036E-01  0.50000500000E+01  0.50000000000E+01 0.  0.
</event>
<event>
 4    1  0.4897575E-001  0.5000050E+01  0.7818608E-02  0.2136455E+00
        -11   -1    0    0    0    0  0.00000000000E+00  0.00000000000E+00  0.50000499739E+01  0.50000500000E+01  0.51100000000E-03 0. -1.
         11   -1    0    0    0    0 -0.00000000000E+00 -0.00000000000E+00 -0.50000499739E+01  0.50000500000E+01  0.51100000000E-03 0.  1.
     100001    1    1    2    0    0 -0.21572506406E-01 -0.51227971336E-02 -0.28959310929E-02  0.50000500000E+01  0.50000000000E+01 0. -1.
     100001    1    1    2    0    0  0.21572506406E-01  0.51227971336E-02  0.28959310929E-02  0.50000500000E+01  0.50000000000E+01 0.  0.
</event>
<event>
 4    1  0.4897575E-001  0.5000050E+01  0.7818608E-02  0.2136455E+00
        -11   -1    0    0    0    0  0.00000000000E+00  0.00000000000E+00  0.50000499739E+01  0.50000500000E+01  0.51100000000E-03 0.  1.
         11   -1    0    0    0    0 -0.00000000000E+00 -0.00000000000E+00 -0.50000499739E+01  0.50000500000E+01  0.51100000000E-03 0. -1.
     100001    1    1    2    0    0 -0.10001510956E-01  0.19079322984E-01 -0.59959747391E-02  0.50000500000E+01  0.50000000000E+01 0.  1.
     100001    1    1    2    0    0  0.10001510956E-01 -0.19079322984E-01  0.59959747391E-02  0.50000500000E+01  0.50000000000E+01 0. -1.
</event>
<event>
 4    1  0.4897575E-001  0.5000050E+01  0.7818608E-02  0.2136455E+00
        -11   -1    0    0    0    0  0.00000000000E+00  0.00000000000E+00  0.50000499739E+01  0.50000500000E+01  0.51100000000E-03 0. -1.
         11   -1    0    0    0    0 -0.00000000000E+00 -0.00000000000E+00 -0.50000499739E+01  0.50000500000E+01  0.51100000000E-03 0.  1.
     100001    1    1    2    0    0 -0.78716735589E-03  0.13497652444E-01  0.17810004100E-01  0.50000500000E+01  0.50000000000E+01 0.  1.
     100001    1    1    2    0    0  0.78716735589E-03 -0.13497652444E-01 -0.17810004100E-01  0.50000500000E+01  0.50000000000E+01 0.  1.
</event>
<event>
 4    1  0.4897575E-001  0.5000050E+01  0.7818608E-02  0.2136455E+00
        -11   -1    0    0    0    0  0.00000000000E+00  0.00000000000E+00  0.50000499739E+01  0.50000500000E+01  0.51100000000E-03 0. -1.
         11   -1    0    0    0    0 -0.00000000000E+00 -0.00000000000E+00 -0.50000499739E+01  0.50000500000E+01  0.51100000000E-03 0.  1.
     100001    1    1    2    0    0  0.90620270426E-02  0.56662546163E-02  0.19641174214E-01  0.50000500000E+01  0.50000000000E+01 0.  0.
     100001    1    1    2    0    0 -0.90620270426E-02 -0.56662546163E-02 -0.19641174214E-01  0.50000500000E+01  0.50000000000E+01 0.  0.
</event>
<event>
 4    1  0.4897575E-001  0.5000050E+01  0.7818608E-02  0.2136455E+00
        -11   -1    0    0    0    0  0.00000000000E+00  0.00000000000E+00  0.50000499739E+01  0.50000500000E+01  0.51100000000E-03 0.  1.
         11   -1    0    0    0    0 -0.00000000000E+00 -0.00000000000E+00 -0.50000499739E+01  0.50000500000E+01  0.51100000000E-03 0. -1.
     100001    1    1    2    0    0  0.17343469223E-01 -0.62676331775E-02  0.12646080407E-01  0.50000500000E+01  0.50000000000E+01 0.  0.
     100001    1    1    2    0    0 -0.17343469223E-01  0.62676331775E-02 -0.12646080407E-01  0.50000500000E+01  0.50000000000E+01 0.  1.
</event>
<event>
 4    1  0.4897575E-001  0.5000050E+01  0.7818608E-02  0.2136455E+00
        -11   -1    0    0    0    0  0.00000000000E+00  0.00000000000E+00  0.50000499739E+01  0.50000500000E+01  0.51100000000E-03 0. -1.
         11   -1    0    0    0    0 -0.00000000000E+00 -0.00000000000E+00 -0.50000499739E+01  0.50000500000E+01  0.51100000000E-03 0.  1.
     100001    1    1    2    0    0 -0.19425912588E-01 -0.10738616036E-01  0.27052810843E-02  0.50000500000E+01  0.50000000000E+01 0. -1.
     100001    1    1    2    0    0  0.19425912588E-01  0.10738616036E-01 -0.27052810843E-02  0.50000500000E+01  0.50000000000E+01 0.  1.
</event>
<event>
 4    1  0.4897575E-001  0.5000050E+01  0.7818608E-02  0.2136455E+00
        -11   -1    0    0    0    0  0.00000000000E+00  0.00000000000E+00  0.50000499739E+01  0.50000500000E+01  0.51100000000E-03 0.  1.
         11   -1    0    0    0    0 -0.00000000000E+00 -0.00000000000E+00 -0.50000499739E+01  0.50000500000E+01  0.51100000000E-03 0. -1.
     100001    1    1    2    0    0 -0.89387233185E-02 -0.10397780170E-02 -0.20469992357E-01  0.50000500000E+01  0.50000000000E+01 0. -1.
     100001    1    1    2    0    0  0.89387233185E-02  0.10397780170E-02  0.20469992357E-01  0.50000500000E+01  0.50000000000E+01 0.  0.
</event>
<event>
 4    1  0.4897575E-001  0.5000050E+01  0.7818608E-02  0.2136455E+00
        -11   -1    0    0    0    0  0.00000000000E+00  0.00000000000E+00  0.50000499739E+01  0.50000500000E+01  0.51100000000E-03 0. -1.
         11   -1    0    0    0    0 -0.00000000000E+00 -0.00000000000E+00 -0.50000499739E+01  0.50000500000E+01  0.51100000000E-03 0.  1.
     100001    1    1    2    0    0 -0.84864795458E-02 -0.19685308726E-01  0.63616652920E-02  0.50000500000E+01  0.50000000000E+01 0. -1.
     100001    1    1    2    0    0  0.84864795458E-02  0.19685308726E-01 -0.63616652920E-02  0.50000500000E+01  0.50000000000E+01 0.  1.
</event>
<event>
 4    1  0.4897575E-001  0.5000050E+01  0.7818608E-02  0.2136455E+00
        -11   -1    0    0    0    0  0.00000000000E+00  0.00000000000E+00  0.50000499739E+01  0.50000500000E+01  0.51100000000E-03 0.  1.
         11   -1    0    0    0    0 -0.00000000000E+00 -0.00000000000E+00 -0.50000499739E+01  0.50000500000E+01  0.51100000000E-03 0. -1.
     100001    1    1    2    0    0 -0.21800548894E-02  0.22251220526E-01  0.36475439466E-03  0.50000500000E+01  0.50000000000E+01 0.  1.
     100001    1    1    2    0    0  0.21800548894E-02 -0.22251220526E-01 -0.36475439466E-03  0.50000500000E+01  0.50000000000E+01 0. -1.
</event>
<event>
 4    1  0.4897575E-001  0.5000050E+01  0.7818608E-02  0.2136455E+00
        -11   -1    0    0    0    0  0.00000000000E+00  0.00000000000E+00  0.50000499739E+01  0.50000500000E+01  0.51100000000E-03 0.  1.
         11   -1    0    0    0    0 -0.00000000000E+00 -0.00000000000E+00 -0.50000499739E+01  0.50000500000E+01  0.51100000000E-03 0. -1.
     100001    1    1    2    0    0 -0.19836058331E-01  0.88614961528E-02  0.52921806314E-02  0.50000500000E+01  0.50000000000E+01 0. -1.
     100001    1    1    2    0    0  0.19836058331E-01 -0.88614961528E-02 -0.52921806314E-02  0.50000500000E+01  0.50000000000E+01 0.  1.
</event>
<event>
 4    1  0.4897575E-001  0.5000050E+01  0.7818608E-02  0.2136455E+00
        -11   -1    0    0    0    0  0.00000000000E+00  0.00000000000E+00  0.50000499739E+01  0.50000500000E+01  0.51100000000E-03 0.  1.
         11   -1    0    0    0    0 -0.00000000000E+00 -0.00000000000E+00 -0.50000499739E+01  0.50000500000E+01  0.51100000000E-03 0. -1.
     100001    1    1    2    0    0  0.20042684523E-01  0.45787969376E-02 -0.87936292694E-02  0.50000500000E+01  0.50000000000E+01 0.  1.
     100001    1    1    2    0    0 -0.20042684523E-01 -0.45787969376E-02  0.87936292694E-02  0.50000500000E+01  0.50000000000E+01 0. -1.
</event>
<event>
 4    1  0.4897575E-001  0.5000050E+01  0.7818608E-02  0.2136455E+00
        -11   -1    0    0    0    0  0.00000000000E+00  0.00000000000E+00  0.50000499739E+01  0.50000500000E+01  0.51100000000E-03 0. -1.
         11   -1    0    0    0    0 -0.00000000000E+00 -0.00000000000E+00 -0.50000499739E+01  0.50000500000E+01  0.51100000000E-03 0.  1.
     100001    1    1    2    0    0 -0.10156711633E-01 -0.19670638709E-01  0.31479646706E-02  0.50000500000E+01  0.50000000000E+01 0.  0.
     100001    1    1    2    0    0  0.10156711633E-01  0.19670638709E-01 -0.31479646706E-02  0.50000500000E+01  0.50000000000E+01 0.  1.
</event>
<event>
 4    1  0.4897575E-001  0.5000050E+01  0.7818608E-02  0.2136455E+00
        -11   -1    0    0    0    0  0.00000000000E+00  0.00000000000E+00  0.50000499739E+01  0.50000500000E+01  0.51100000000E-03 0. -1.
         11   -1    0    0    0    0 -0.00000000000E+00 -0.00000000000E+00 -0.50000499739E+01  0.50000500000E+01  0.51100000000E-03 0.  1.
     100001    1    1    2    0    0  0.14632748634E-02  0.18692056147E-01  0.12184759483E-01  0.50000500000E+01  0.50000000000E+01 0. -1.
     100001    1    1    2    0    0 -0.14632748634E-02 -0.18692056147E-01 -0.12184759483E-01  0.50000500000E+01  0.50000000000E+01 0.  1.
</event>
<event>
 4    1  0.4897575E-001  0.5000050E+01  0.7818608E-02  0.2136455E+00
        -11   -1    0    0    0    0  0.00000000000E+00  0.00000000000E+00  0.50000499739E+01  0.50000500000E+01  0.51100000000E-03 0.  1.
         11   -1    0    0    0    0 -0.00000000000E+00 -0.00000000000E+00 -0.50000499739E+01  0.50000500000E+01  0.51100000000E-03 0. -1.
     100001    1    1    2    0    0  0.10695127353E-01 -0.68082164796E-02 -0.18419145997E-01  0.50000500000E+01  0.50000000000E+01 0.  0.
     100001    1    1    2    0    0 -0.10695127353E-01  0.68082164796E-02  0.18419145997E-01  0.50000500000E+01  0.50000000000E+01 0.  0.
</event>
<event>
 4    1  0.4897575E-001  0.5000050E+01  0.7818608E-02  0.2136455E+00
        -11   -1    0    0    0    0  0.00000000000E+00  0.00000000000E+00  0.50000499739E+01  0.50000500000E+01  0.51100000000E-03 0. -1.
         11   -1    0    0    0    0 -0.00000000000E+00 -0.00000000000E+00 -0.50000499739E+01  0.50000500000E+01  0.51100000000E-03 0.  1.
     100001    1    1    2    0    0  0.98516229633E-02 -0.19162728389E-01  0.59781155634E-02  0.50000500000E+01  0.50000000000E+01 0.  0.
     100001    1    1    2    0    0 -0.98516229633E-02  0.19162728389E-01 -0.59781155634E-02  0.50000500000E+01  0.50000000000E+01 0. -1.
</event>
<event>
 4    1  0.4897575E-001  0.5000050E+01  0.7818608E-02  0.2136455E+00
        -11   -1    0    0    0    0  0.00000000000E+00  0.00000000000E+00  0.50000499739E+01  0.50000500000E+01  0.51100000000E-03 0.  1.
         11   -1    0    0    0    0 -0.00000000000E+00 -0.00000000000E+00 -0.50000499739E+01  0.50000500000E+01  0.51100000000E-03 0. -1.
     100001    1    1    2    0    0 -0.36321877188E-02 -0.21552806796E-01  0.47208295423E-02  0.50000500000E+01  0.50000000000E+01 0. -1.
     100001    1    1    2    0    0  0.36321877188E-02  0.21552806796E-01 -0.47208295423E-02  0.50000500000E+01  0.50000000000E+01 0. -1.
</event>
<event>
 4    1  0.4897575E-001  0.5000050E+01  0.7818608E-02  0.2136455E+00
        -11   -1    0    0    0    0  0.00000000000E+00  0.00000000000E+00  0.50000499739E+01  0.50000500000E+01  0.51100000000E-03 0. -1.
         11   -1    0    0    0    0 -0.00000000000E+00 -0.00000000000E+00 -0.50000499739E+01  0.50000500000E+01  0.51100000000E-03 0.  1.
     100001    1    1    2    0    0  0.12001890569E-01  0.12061436058E-01 -0.14507890370E-01  0.50000500000E+01  0.50000000000E+01 0.  0.
     100001    1    1    2    0    0 -0.12001890569E-01 -0.12061436058E-01  0.14507890370E-01  0.50000500000E+01  0.50000000000E+01 0.  0.
</event>
<event>
 4    1  0.4897575E-001  0.5000050E+01  0.7818608E-02  0.2136455E+00
        -11   -1    0    0    0    0  0.00000000000E+00  0.00000000000E+00  0.50000499739E+01  0.50000500000E+01  0.51100000000E-03 0. -1.
         11   -1    0    0    0    0 -0.00000000000E+00 -0.00000000000E+00 -0.50000499739E+01  0.50000500000E+01  0.51100000000E-03 0.  1.
     100001    1    1    2    0    0 -0.18112129448E-01  0.16312966968E-02  0.13011231224E-01  0.50000500000E+01  0.50000000000E+01 0.  1.
     100001    1    1    2    0    0  0.18112129448E-01 -0.16312966968E-02 -0.13011231224E-01  0.50000500000E+01  0.50000000000E+01 0.  0.
</event>
<event>
 4    1  0.4897575E-001  0.5000050E+01  0.7818608E-02  0.2136455E+00
        -11   -1    0    0    0    0  0.00000000000E+00  0.00000000000E+00  0.50000499739E+01  0.50000500000E+01  0.51100000000E-03 0.  1.
         11   -1    0    0    0    0 -0.00000000000E+00 -0.00000000000E+00 -0.50000499739E+01  0.50000500000E+01  0.51100000000E-03 0. -1.
     100001    1    1    2    0    0  0.17377095367E-01  0.75514201796E-02 -0.11874978310E-01  0.50000500000E+01  0.50000000000E+01 0. -1.
     100001    1    1    2    0    0 -0.17377095367E-01 -0.75514201796E-02  0.11874978310E-01  0.50000500000E+01  0.50000000000E+01 0.  1.
</event>
<event>
 4    1  0.4897575E-001  0.5000050E+01  0.7818608E-02  0.2136455E+00
        -11   -1    0    0    0    0  0.00000000000E+00  0.00000000000E+00  0.50000499739E+01  0.50000500000E+01  0.51100000000E-03 0. -1.
         11   -1    0    0    0    0 -0.00000000000E+00 -0.00000000000E+00 -0.50000499739E+01  0.50000500000E+01  0.51100000000E-03 0.  1.
     100001    1    1    2    0    0 -0.21074622157E-01  0.41220588797E-02  0.62346957841E-02  0.50000500000E+01  0.50000000000E+01 0. -1.
     100001    1    1    2    0    0  0.21074622157E-01 -0.41220588797E-02 -0.62346957841E-02  0.50000500000E+01  0.50000000000E+01 0.  1.
</event>
<event>
 4    1  0.4897575E-001  0.5000050E+01  0.7818608E-02  0.2136455E+00
        -11   -1    0    0    0    0  0.00000000000E+00  0.00000000000E+00  0.50000499739E+01  0.50000500000E+01  0.51100000000E-03 0. -1.
         11   -1    0    0    0    0 -0.00000000000E+00 -0.00000000000E+00 -0.50000499739E+01  0.50000500000E+01  0.51100000000E-03 0.  1.
     100001    1    1    2    0    0 -0.17758161260E-01  0.59206027071E-02 -0.12230971844E-01  0.50000500000E+01  0.50000000000E+01 0.  0.
     100001    1    1    2    0    0  0.17758161260E-01 -0.59206027071E-02  0.12230971844E-01  0.50000500000E+01  0.50000000000E+01 0.  1.
</event>
<event>
 4    1  0.4897575E-001  0.5000050E+01  0.7818608E-02  0.2136455E+00
        -11   -1    0    0    0    0  0.00000000000E+00  0.00000000000E+00  0.50000499739E+01  0.50000500000E+01  0.51100000000E-03 0.  1.
         11   -1    0    0    0    0 -0.00000000000E+00 -0.00000000000E+00 -0.50000499739E+01  0.50000500000E+01  0.51100000000E-03 0. -1.
     100001    1    1    2    0    0 -0.66970141558E-02 -0.52412721796E-02 -0.20680463422E-01  0.50000500000E+01  0.50000000000E+01 0. -1.
     100001    1    1    2    0    0  0.66970141558E-02  0.52412721796E-02  0.20680463422E-01  0.50000500000E+01  0.50000000000E+01 0.  0.
</event>
<event>
 4    1  0.4897575E-001  0.5000050E+01  0.7818608E-02  0.2136455E+00
        -11   -1    0    0    0    0  0.00000000000E+00  0.00000000000E+00  0.50000499739E+01  0.50000500000E+01  0.51100000000E-03 0. -1.
         11   -1    0    0    0    0 -0.00000000000E+00 -0.00000000000E+00 -0.50000499739E+01  0.50000500000E+01  0.51100000000E-03 0.  1.
     100001    1    1    2    0    0 -0.42022209935E-02  0.20726343046E-01 -0.72637829441E-02  0.50000500000E+01  0.50000000000E+01 0.  0.
     100001    1    1    2    0    0  0.42022209935E-02 -0.20726343046E-01  0.72637829441E-02  0.50000500000E+01  0.50000000000E+01 0.  1.
</event>
<event>
 4    1  0.4897575E-001  0.5000050E+01  0.7818608E-02  0.2136455E+00
        -11   -1    0    0    0    0  0.00000000000E+00  0.00000000000E+00  0.50000499739E+01  0.50000500000E+01  0.51100000000E-03 0. -1.
         11   -1    0    0    0    0 -0.00000000000E+00 -0.00000000000E+00 -0.50000499739E+01  0.50000500000E+01  0.51100000000E-03 0.  1.
     100001    1    1    2    0    0 -0.66172446853E-02  0.21215748584E-01 -0.24711504992E-02  0.50000500000E+01  0.50000000000E+01 0. -1.
     100001    1    1    2    0    0  0.66172446853E-02 -0.21215748584E-01  0.24711504992E-02  0.50000500000E+01  0.50000000000E+01 0.  1.
</event>
<event>
 4    1  0.4897575E-001  0.5000050E+01  0.7818608E-02  0.2136455E+00
        -11   -1    0    0    0    0  0.00000000000E+00  0.00000000000E+00  0.50000499739E+01  0.50000500000E+01  0.51100000000E-03 0. -1.
         11   -1    0    0    0    0 -0.00000000000E+00 -0.00000000000E+00 -0.50000499739E+01  0.50000500000E+01  0.51100000000E-03 0.  1.
     100001    1    1    2    0    0 -0.71537811637E-02 -0.19155340137E-01 -0.90497988546E-02  0.50000500000E+01  0.50000000000E+01 0. -1.
     100001    1    1    2    0    0  0.71537811637E-02  0.19155340137E-01  0.90497988546E-02  0.50000500000E+01  0.50000000000E+01 0.  0.
</event>
<event>
 4    1  0.4897575E-001  0.5000050E+01  0.7818608E-02  0.2136455E+00
        -11   -1    0    0    0    0  0.00000000000E+00  0.00000000000E+00  0.50000499739E+01  0.50000500000E+01  0.51100000000E-03 0. -1.
         11   -1    0    0    0    0 -0.00000000000E+00 -0.00000000000E+00 -0.50000499739E+01  0.50000500000E+01  0.51100000000E-03 0.  1.
     100001    1    1    2    0    0  0.22073333094E-01 -0.79970358850E-03  0.34829499385E-02  0.50000500000E+01  0.50000000000E+01 0. -1.
     100001    1    1    2    0    0 -0.22073333094E-01  0.79970358850E-03 -0.34829499385E-02  0.50000500000E+01  0.50000000000E+01 0.  1.
</event>
<event>
 4    1  0.4897575E-001  0.5000050E+01  0.7818608E-02  0.2136455E+00
        -11   -1    0    0    0    0  0.00000000000E+00  0.00000000000E+00  0.50000499739E+01  0.50000500000E+01  0.51100000000E-03 0. -1.
         11   -1    0    0    0    0 -0.00000000000E+00 -0.00000000000E+00 -0.50000499739E+01  0.50000500000E+01  0.51100000000E-03 0.  1.
     100001    1    1    2    0    0  0.41581137341E-03  0.52645160595E-02 -0.21728195313E-01  0.50000500000E+01  0.50000000000E+01 0.  0.
     100001    1    1    2    0    0 -0.41581137341E-03 -0.52645160595E-02  0.21728195313E-01  0.50000500000E+01  0.50000000000E+01 0. -1.
</event>
<event>
 4    1  0.4897575E-001  0.5000050E+01  0.7818608E-02  0.2136455E+00
        -11   -1    0    0    0    0  0.00000000000E+00  0.00000000000E+00  0.50000499739E+01  0.50000500000E+01  0.51100000000E-03 0.  1.
         11   -1    0    0    0    0 -0.00000000000E+00 -0.00000000000E+00 -0.50000499739E+01  0.50000500000E+01  0.51100000000E-03 0. -1.
     100001    1    1    2    0    0 -0.93253239220E-03  0.10305530057E-01 -0.19822435107E-01  0.50000500000E+01  0.50000000000E+01 0.  0.
     100001    1    1    2    0    0  0.93253239220E-03 -0.10305530057E-01  0.19822435107E-01  0.50000500000E+01  0.50000000000E+01 0.  1.
</event>
<event>
 4    1  0.4897575E-001  0.5000050E+01  0.7818608E-02  0.2136455E+00
        -11   -1    0    0    0    0  0.00000000000E+00  0.00000000000E+00  0.50000499739E+01  0.50000500000E+01  0.51100000000E-03 0. -1.
         11   -1    0    0    0    0 -0.00000000000E+00 -0.00000000000E+00 -0.50000499739E+01  0.50000500000E+01  0.51100000000E-03 0.  1.
     100001    1    1    2    0    0  0.11365000590E-01  0.66785751954E-02  0.18062001410E-01  0.50000500000E+01  0.50000000000E+01 0. -1.
     100001    1    1    2    0    0 -0.11365000590E-01 -0.66785751954E-02 -0.18062001410E-01  0.50000500000E+01  0.50000000000E+01 0.  1.
</event>
<event>
 4    1  0.4897575E-001  0.5000050E+01  0.7818608E-02  0.2136455E+00
        -11   -1    0    0    0    0  0.00000000000E+00  0.00000000000E+00  0.50000499739E+01  0.50000500000E+01  0.51100000000E-03 0. -1.
         11   -1    0    0    0    0 -0.00000000000E+00 -0.00000000000E+00 -0.50000499739E+01  0.50000500000E+01  0.51100000000E-03 0.  1.
     100001    1    1    2    0    0 -0.19460560592E-01  0.74525560256E-02  0.81085442675E-02  0.50000500000E+01  0.50000000000E+01 0.  1.
     100001    1    1    2    0    0  0.19460560592E-01 -0.74525560256E-02 -0.81085442675E-02  0.50000500000E+01  0.50000000000E+01 0.  0.
</event>
<event>
 4    1  0.4897575E-001  0.5000050E+01  0.7818608E-02  0.2136455E+00
        -11   -1    0    0    0    0  0.00000000000E+00  0.00000000000E+00  0.50000499739E+01  0.50000500000E+01  0.51100000000E-03 0.  1.
         11   -1    0    0    0    0 -0.00000000000E+00 -0.00000000000E+00 -0.50000499739E+01  0.50000500000E+01  0.51100000000E-03 0. -1.
     100001    1    1    2    0    0  0.20289578279E-01 -0.86937478646E-02  0.35713108671E-02  0.50000500000E+01  0.50000000000E+01 0. -1.
     100001    1    1    2    0    0 -0.20289578279E-01  0.86937478646E-02 -0.35713108671E-02  0.50000500000E+01  0.50000000000E+01 0.  1.
</event>
<event>
 4    1  0.4897575E-001  0.5000050E+01  0.7818608E-02  0.2136455E+00
        -11   -1    0    0    0    0  0.00000000000E+00  0.00000000000E+00  0.50000499739E+01  0.50000500000E+01  0.51100000000E-03 0.  1.
         11   -1    0    0    0    0 -0.00000000000E+00 -0.00000000000E+00 -0.50000499739E+01  0.50000500000E+01  0.51100000000E-03 0. -1.
     100001    1    1    2    0    0  0.66054369322E-02  0.19120238261E-01  0.95282313045E-02  0.50000500000E+01  0.50000000000E+01 0. -1.
     100001    1    1    2    0    0 -0.66054369322E-02 -0.19120238261E-01 -0.95282313045E-02  0.50000500000E+01  0.50000000000E+01 0.  0.
</event>
<event>
 4    1  0.4897575E-001  0.5000050E+01  0.7818608E-02  0.2136455E+00
        -11   -1    0    0    0    0  0.00000000000E+00  0.00000000000E+00  0.50000499739E+01  0.50000500000E+01  0.51100000000E-03 0. -1.
         11   -1    0    0    0    0 -0.00000000000E+00 -0.00000000000E+00 -0.50000499739E+01  0.50000500000E+01  0.51100000000E-03 0.  1.
     100001    1    1    2    0    0  0.13588534353E-01 -0.17345919295E-01 -0.38043814155E-02  0.50000500000E+01  0.50000000000E+01 0.  0.
     100001    1    1    2    0    0 -0.13588534353E-01  0.17345919295E-01  0.38043814155E-02  0.50000500000E+01  0.50000000000E+01 0.  1.
</event>
<event>
 4    1  0.4897575E-001  0.5000050E+01  0.7818608E-02  0.2136455E+00
        -11   -1    0    0    0    0  0.00000000000E+00  0.00000000000E+00  0.50000499739E+01  0.50000500000E+01  0.51100000000E-03 0. -1.
         11   -1    0    0    0    0 -0.00000000000E+00 -0.00000000000E+00 -0.50000499739E+01  0.50000500000E+01  0.51100000000E-03 0.  1.
     100001    1    1    2    0    0  0.19122350377E-01 -0.10793157178E-01  0.42244495734E-02  0.50000500000E+01  0.50000000000E+01 0.  1.
     100001    1    1    2    0    0 -0.19122350377E-01  0.10793157178E-01 -0.42244495734E-02  0.50000500000E+01  0.50000000000E+01 0. -1.
</event>
<event>
 4    1  0.4897575E-001  0.5000050E+01  0.7818608E-02  0.2136455E+00
        -11   -1    0    0    0    0  0.00000000000E+00  0.00000000000E+00  0.50000499739E+01  0.50000500000E+01  0.51100000000E-03 0. -1.
         11   -1    0    0    0    0 -0.00000000000E+00 -0.00000000000E+00 -0.50000499739E+01  0.50000500000E+01  0.51100000000E-03 0.  1.
     100001    1    1    2    0    0 -0.19697148195E-01 -0.37572239867E-02 -0.98948532521E-02  0.50000500000E+01  0.50000000000E+01 0.  0.
     100001    1    1    2    0    0  0.19697148195E-01  0.37572239867E-02  0.98948532521E-02  0.50000500000E+01  0.50000000000E+01 0.  1.
</event>
<event>
 4    1  0.4897575E-001  0.5000050E+01  0.7818608E-02  0.2136455E+00
        -11   -1    0    0    0    0  0.00000000000E+00  0.00000000000E+00  0.50000499739E+01  0.50000500000E+01  0.51100000000E-03 0.  1.
         11   -1    0    0    0    0 -0.00000000000E+00 -0.00000000000E+00 -0.50000499739E+01  0.50000500000E+01  0.51100000000E-03 0. -1.
     100001    1    1    2    0    0 -0.61503175840E-02  0.20495837173E-02 -0.21400357478E-01  0.50000500000E+01  0.50000000000E+01 0. -1.
     100001    1    1    2    0    0  0.61503175840E-02 -0.20495837173E-02  0.21400357478E-01  0.50000500000E+01  0.50000000000E+01 0.  1.
</event>
<event>
 4    1  0.4897575E-001  0.5000050E+01  0.7818608E-02  0.2136455E+00
        -11   -1    0    0    0    0  0.00000000000E+00  0.00000000000E+00  0.50000499739E+01  0.50000500000E+01  0.51100000000E-03 0. -1.
         11   -1    0    0    0    0 -0.00000000000E+00 -0.00000000000E+00 -0.50000499739E+01  0.50000500000E+01  0.51100000000E-03 0.  1.
     100001    1    1    2    0    0  0.12111487680E-01  0.12357775179E-01  0.14163324426E-01  0.50000500000E+01  0.50000000000E+01 0. -1.
     100001    1    1    2    0    0 -0.12111487680E-01 -0.12357775179E-01 -0.14163324426E-01  0.50000500000E+01  0.50000000000E+01 0.  1.
</event>
<event>
 4    1  0.4897575E-001  0.5000050E+01  0.7818608E-02  0.2136455E+00
        -11   -1    0    0    0    0  0.00000000000E+00  0.00000000000E+00  0.50000499739E+01  0.50000500000E+01  0.51100000000E-03 0.  1.
         11   -1    0    0    0    0 -0.00000000000E+00 -0.00000000000E+00 -0.50000499739E+01  0.50000500000E+01  0.51100000000E-03 0. -1.
     100001    1    1    2    0    0  0.27880162577E-02  0.44621502494E-02 -0.21732893974E-01  0.50000500000E+01  0.50000000000E+01 0.  0.
     100001    1    1    2    0    0 -0.27880162577E-02 -0.44621502494E-02  0.21732893974E-01  0.50000500000E+01  0.50000000000E+01 0.  0.
</event>
<event>
 4    1  0.4897575E-001  0.5000050E+01  0.7818608E-02  0.2136455E+00
        -11   -1    0    0    0    0  0.00000000000E+00  0.00000000000E+00  0.50000499739E+01  0.50000500000E+01  0.51100000000E-03 0.  1.
         11   -1    0    0    0    0 -0.00000000000E+00 -0.00000000000E+00 -0.50000499739E+01  0.50000500000E+01  0.51100000000E-03 0. -1.
     100001    1    1    2    0    0 -0.14054112543E-01  0.39289411155E-02  0.16942486309E-01  0.50000500000E+01  0.50000000000E+01 0.  1.
     100001    1    1    2    0    0  0.14054112543E-01 -0.39289411155E-02 -0.16942486309E-01  0.50000500000E+01  0.50000000000E+01 0. -1.
</event>
<event>
 4    1  0.4897575E-001  0.5000050E+01  0.7818608E-02  0.2136455E+00
        -11   -1    0    0    0    0  0.00000000000E+00  0.00000000000E+00  0.50000499739E+01  0.50000500000E+01  0.51100000000E-03 0. -1.
         11   -1    0    0    0    0 -0.00000000000E+00 -0.00000000000E+00 -0.50000499739E+01  0.50000500000E+01  0.51100000000E-03 0.  1.
     100001    1    1    2    0    0  0.72458092956E-02  0.93716165284E-02 -0.18965061331E-01  0.50000500000E+01  0.50000000000E+01 0.  0.
     100001    1    1    2    0    0 -0.72458092956E-02 -0.93716165284E-02  0.18965061331E-01  0.50000500000E+01  0.50000000000E+01 0.  0.
</event>
<event>
 4    1  0.4897575E-001  0.5000050E+01  0.7818608E-02  0.2136455E+00
        -11   -1    0    0    0    0  0.00000000000E+00  0.00000000000E+00  0.50000499739E+01  0.50000500000E+01  0.51100000000E-03 0. -1.
         11   -1    0    0    0    0 -0.00000000000E+00 -0.00000000000E+00 -0.50000499739E+01  0.50000500000E+01  0.51100000000E-03 0.  1.
     100001    1    1    2    0    0 -0.16845432640E-01  0.13703802852E-01 -0.53328872628E-02  0.50000500000E+01  0.50000000000E+01 0. -1.
     100001    1    1    2    0    0  0.16845432640E-01 -0.13703802852E-01  0.53328872628E-02  0.50000500000E+01  0.50000000000E+01 0.  1.
</event>
<event>
 4    1  0.4897575E-001  0.5000050E+01  0.7818608E-02  0.2136455E+00
        -11   -1    0    0    0    0  0.00000000000E+00  0.00000000000E+00  0.50000499739E+01  0.50000500000E+01  0.51100000000E-03 0. -1.
         11   -1    0    0    0    0 -0.00000000000E+00 -0.00000000000E+00 -0.50000499739E+01  0.50000500000E+01  0.51100000000E-03 0.  1.
     100001    1    1    2    0    0 -0.30629807724E-02  0.11525502549E-01  0.18915164281E-01  0.50000500000E+01  0.50000000000E+01 0.  0.
     100001    1    1    2    0    0  0.30629807724E-02 -0.11525502549E-01 -0.18915164281E-01  0.50000500000E+01  0.50000000000E+01 0. -1.
</event>
<event>
 4    1  0.4897575E-001  0.5000050E+01  0.7818608E-02  0.2136455E+00
        -11   -1    0    0    0    0  0.00000000000E+00  0.00000000000E+00  0.50000499739E+01  0.50000500000E+01  0.51100000000E-03 0.  1.
         11   -1    0    0    0    0 -0.00000000000E+00 -0.00000000000E+00 -0.50000499739E+01  0.50000500000E+01  0.51100000000E-03 0. -1.
     100001    1    1    2    0    0 -0.17736621821E-01  0.66472931257E-02 -0.11883948858E-01  0.50000500000E+01  0.50000000000E+01 0. -1.
     100001    1    1    2    0    0  0.17736621821E-01 -0.66472931257E-02  0.11883948858E-01  0.50000500000E+01  0.50000000000E+01 0.  1.
</event>
<event>
 4    1  0.4897575E-001  0.5000050E+01  0.7818608E-02  0.2136455E+00
        -11   -1    0    0    0    0  0.00000000000E+00  0.00000000000E+00  0.50000499739E+01  0.50000500000E+01  0.51100000000E-03 0.  1.
         11   -1    0    0    0    0 -0.00000000000E+00 -0.00000000000E+00 -0.50000499739E+01  0.50000500000E+01  0.51100000000E-03 0. -1.
     100001    1    1    2    0    0  0.15002444012E-01  0.13647735673E-01  0.94163944610E-02  0.50000500000E+01  0.50000000000E+01 0.  1.
     100001    1    1    2    0    0 -0.15002444012E-01 -0.13647735673E-01 -0.94163944610E-02  0.50000500000E+01  0.50000000000E+01 0.  1.
</event>
<event>
 4    1  0.4897575E-001  0.5000050E+01  0.7818608E-02  0.2136455E+00
        -11   -1    0    0    0    0  0.00000000000E+00  0.00000000000E+00  0.50000499739E+01  0.50000500000E+01  0.51100000000E-03 0.  1.
         11   -1    0    0    0    0 -0.00000000000E+00 -0.00000000000E+00 -0.50000499739E+01  0.50000500000E+01  0.51100000000E-03 0. -1.
     100001    1    1    2    0    0  0.94516195242E-02  0.20164959013E-01  0.20109242587E-02  0.50000500000E+01  0.50000000000E+01 0. -1.
     100001    1    1    2    0    0 -0.94516195242E-02 -0.20164959013E-01 -0.20109242587E-02  0.50000500000E+01  0.50000000000E+01 0.  1.
</event>
<event>
 4    1  0.4897575E-001  0.5000050E+01  0.7818608E-02  0.2136455E+00
        -11   -1    0    0    0    0  0.00000000000E+00  0.00000000000E+00  0.50000499739E+01  0.50000500000E+01  0.51100000000E-03 0.  1.
         11   -1    0    0    0    0 -0.00000000000E+00 -0.00000000000E+00 -0.50000499739E+01  0.50000500000E+01  0.51100000000E-03 0. -1.
     100001    1    1    2    0    0  0.16001199868E-01  0.11401997720E-01 -0.10675137037E-01  0.50000500000E+01  0.50000000000E+01 0. -1.
     100001    1    1    2    0    0 -0.16001199868E-01 -0.11401997720E-01  0.10675137037E-01  0.50000500000E+01  0.50000000000E+01 0.  1.
</event>
<event>
 4    1  0.4897575E-001  0.5000050E+01  0.7818608E-02  0.2136455E+00
        -11   -1    0    0    0    0  0.00000000000E+00  0.00000000000E+00  0.50000499739E+01  0.50000500000E+01  0.51100000000E-03 0. -1.
         11   -1    0    0    0    0 -0.00000000000E+00 -0.00000000000E+00 -0.50000499739E+01  0.50000500000E+01  0.51100000000E-03 0.  1.
     100001    1    1    2    0    0  0.26014303620E-02  0.12169593352E-01 -0.18577837811E-01  0.50000500000E+01  0.50000000000E+01 0.  1.
     100001    1    1    2    0    0 -0.26014303620E-02 -0.12169593352E-01  0.18577837811E-01  0.50000500000E+01  0.50000000000E+01 0. -1.
</event>
<event>
 4    1  0.4897575E-001  0.5000050E+01  0.7818608E-02  0.2136455E+00
        -11   -1    0    0    0    0  0.00000000000E+00  0.00000000000E+00  0.50000499739E+01  0.50000500000E+01  0.51100000000E-03 0.  1.
         11   -1    0    0    0    0 -0.00000000000E+00 -0.00000000000E+00 -0.50000499739E+01  0.50000500000E+01  0.51100000000E-03 0. -1.
     100001    1    1    2    0    0 -0.50726602909E-02  0.13785042447E-01 -0.16859514296E-01  0.50000500000E+01  0.50000000000E+01 0. -1.
     100001    1    1    2    0    0  0.50726602909E-02 -0.13785042447E-01  0.16859514296E-01  0.50000500000E+01  0.50000000000E+01 0.  1.
</event>
<event>
 4    1  0.4897575E-001  0.5000050E+01  0.7818608E-02  0.2136455E+00
        -11   -1    0    0    0    0  0.00000000000E+00  0.00000000000E+00  0.50000499739E+01  0.50000500000E+01  0.51100000000E-03 0. -1.
         11   -1    0    0    0    0 -0.00000000000E+00 -0.00000000000E+00 -0.50000499739E+01  0.50000500000E+01  0.51100000000E-03 0.  1.
     100001    1    1    2    0    0 -0.10205661148E-01  0.93199621943E-02  0.17577977279E-01  0.50000500000E+01  0.50000000000E+01 0.  0.
     100001    1    1    2    0    0  0.10205661148E-01 -0.93199621943E-02 -0.17577977279E-01  0.50000500000E+01  0.50000000000E+01 0.  0.
</event>
<event>
 4    1  0.4897575E-001  0.5000050E+01  0.7818608E-02  0.2136455E+00
        -11   -1    0    0    0    0  0.00000000000E+00  0.00000000000E+00  0.50000499739E+01  0.50000500000E+01  0.51100000000E-03 0. -1.
         11   -1    0    0    0    0 -0.00000000000E+00 -0.00000000000E+00 -0.50000499739E+01  0.50000500000E+01  0.51100000000E-03 0.  1.
     100001    1    1    2    0    0 -0.12370215727E-01  0.15841574865E-01 -0.97992228600E-02  0.50000500000E+01  0.50000000000E+01 0.  1.
     100001    1    1    2    0    0  0.12370215727E-01 -0.15841574865E-01  0.97992228600E-02  0.50000500000E+01  0.50000000000E+01 0. -1.
</event>
<event>
 4    1  0.4897575E-001  0.5000050E+01  0.7818608E-02  0.2136455E+00
        -11   -1    0    0    0    0  0.00000000000E+00  0.00000000000E+00  0.50000499739E+01  0.50000500000E+01  0.51100000000E-03 0. -1.
         11   -1    0    0    0    0 -0.00000000000E+00 -0.00000000000E+00 -0.50000499739E+01  0.50000500000E+01  0.51100000000E-03 0.  1.
     100001    1    1    2    0    0  0.95225793037E-03  0.80948135733E-02 -0.20822336517E-01  0.50000500000E+01  0.50000000000E+01 0.  1.
     100001    1    1    2    0    0 -0.95225793037E-03 -0.80948135733E-02  0.20822336517E-01  0.50000500000E+01  0.50000000000E+01 0.  0.
</event>
<event>
 4    1  0.4897575E-001  0.5000050E+01  0.7818608E-02  0.2136455E+00
        -11   -1    0    0    0    0  0.00000000000E+00  0.00000000000E+00  0.50000499739E+01  0.50000500000E+01  0.51100000000E-03 0.  1.
         11   -1    0    0    0    0 -0.00000000000E+00 -0.00000000000E+00 -0.50000499739E+01  0.50000500000E+01  0.51100000000E-03 0. -1.
     100001    1    1    2    0    0 -0.17368555643E-01  0.35838178967E-02  0.13619545666E-01  0.50000500000E+01  0.50000000000E+01 0.  1.
     100001    1    1    2    0    0  0.17368555643E-01 -0.35838178967E-02 -0.13619545666E-01  0.50000500000E+01  0.50000000000E+01 0. -1.
</event>
<event>
 4    1  0.4897575E-001  0.5000050E+01  0.7818608E-02  0.2136455E+00
        -11   -1    0    0    0    0  0.00000000000E+00  0.00000000000E+00  0.50000499739E+01  0.50000500000E+01  0.51100000000E-03 0.  1.
         11   -1    0    0    0    0 -0.00000000000E+00 -0.00000000000E+00 -0.50000499739E+01  0.50000500000E+01  0.51100000000E-03 0. -1.
     100001    1    1    2    0    0 -0.13175554547E-01  0.12461789744E-01 -0.13080942579E-01  0.50000500000E+01  0.50000000000E+01 0. -1.
     100001    1    1    2    0    0  0.13175554547E-01 -0.12461789744E-01  0.13080942579E-01  0.50000500000E+01  0.50000000000E+01 0.  1.
</event>
<event>
 4    1  0.4897575E-001  0.5000050E+01  0.7818608E-02  0.2136455E+00
        -11   -1    0    0    0    0  0.00000000000E+00  0.00000000000E+00  0.50000499739E+01  0.50000500000E+01  0.51100000000E-03 0.  1.
         11   -1    0    0    0    0 -0.00000000000E+00 -0.00000000000E+00 -0.50000499739E+01  0.50000500000E+01  0.51100000000E-03 0. -1.
     100001    1    1    2    0    0  0.35948724706E-02 -0.12292746342E-01  0.18329423867E-01  0.50000500000E+01  0.50000000000E+01 0.  1.
     100001    1    1    2    0    0 -0.35948724706E-02  0.12292746342E-01 -0.18329423867E-01  0.50000500000E+01  0.50000000000E+01 0.  0.
</event>
<event>
 4    1  0.4897575E-001  0.5000050E+01  0.7818608E-02  0.2136455E+00
        -11   -1    0    0    0    0  0.00000000000E+00  0.00000000000E+00  0.50000499739E+01  0.50000500000E+01  0.51100000000E-03 0.  1.
         11   -1    0    0    0    0 -0.00000000000E+00 -0.00000000000E+00 -0.50000499739E+01  0.50000500000E+01  0.51100000000E-03 0. -1.
     100001    1    1    2    0    0 -0.18842869755E-01 -0.11708862410E-01 -0.28020172115E-02  0.50000500000E+01  0.50000000000E+01 0. -1.
     100001    1    1    2    0    0  0.18842869755E-01  0.11708862410E-01  0.28020172115E-02  0.50000500000E+01  0.50000000000E+01 0.  1.
</event>
<event>
 4    1  0.4897575E-001  0.5000050E+01  0.7818608E-02  0.2136455E+00
        -11   -1    0    0    0    0  0.00000000000E+00  0.00000000000E+00  0.50000499739E+01  0.50000500000E+01  0.51100000000E-03 0. -1.
         11   -1    0    0    0    0 -0.00000000000E+00 -0.00000000000E+00 -0.50000499739E+01  0.50000500000E+01  0.51100000000E-03 0.  1.
     100001    1    1    2    0    0  0.19197925162E-01  0.52525924028E-02 -0.10190801859E-01  0.50000500000E+01  0.50000000000E+01 0.  0.
     100001    1    1    2    0    0 -0.19197925162E-01 -0.52525924028E-02  0.10190801859E-01  0.50000500000E+01  0.50000000000E+01 0.  1.
</event>
<event>
 4    1  0.4897575E-001  0.5000050E+01  0.7818608E-02  0.2136455E+00
        -11   -1    0    0    0    0  0.00000000000E+00  0.00000000000E+00  0.50000499739E+01  0.50000500000E+01  0.51100000000E-03 0.  1.
         11   -1    0    0    0    0 -0.00000000000E+00 -0.00000000000E+00 -0.50000499739E+01  0.50000500000E+01  0.51100000000E-03 0. -1.
     100001    1    1    2    0    0  0.45150811545E-02 -0.10509084725E-01 -0.19213944946E-01  0.50000500000E+01  0.50000000000E+01 0.  0.
     100001    1    1    2    0    0 -0.45150811545E-02  0.10509084725E-01  0.19213944946E-01  0.50000500000E+01  0.50000000000E+01 0.  1.
</event>
<event>
 4    1  0.4897575E-001  0.5000050E+01  0.7818608E-02  0.2136455E+00
        -11   -1    0    0    0    0  0.00000000000E+00  0.00000000000E+00  0.50000499739E+01  0.50000500000E+01  0.51100000000E-03 0.  1.
         11   -1    0    0    0    0 -0.00000000000E+00 -0.00000000000E+00 -0.50000499739E+01  0.50000500000E+01  0.51100000000E-03 0. -1.
     100001    1    1    2    0    0 -0.16593310757E-01  0.10295299059E-01 -0.10893638299E-01  0.50000500000E+01  0.50000000000E+01 0. -1.
     100001    1    1    2    0    0  0.16593310757E-01 -0.10295299059E-01  0.10893638299E-01  0.50000500000E+01  0.50000000000E+01 0.  1.
</event>
<event>
 4    1  0.4897575E-001  0.5000050E+01  0.7818608E-02  0.2136455E+00
        -11   -1    0    0    0    0  0.00000000000E+00  0.00000000000E+00  0.50000499739E+01  0.50000500000E+01  0.51100000000E-03 0.  1.
         11   -1    0    0    0    0 -0.00000000000E+00 -0.00000000000E+00 -0.50000499739E+01  0.50000500000E+01  0.51100000000E-03 0. -1.
     100001    1    1    2    0    0  0.85915436199E-02  0.17627389632E-01 -0.10745371701E-01  0.50000500000E+01  0.50000000000E+01 0. -1.
     100001    1    1    2    0    0 -0.85915436199E-02 -0.17627389632E-01  0.10745371701E-01  0.50000500000E+01  0.50000000000E+01 0.  1.
</event>
<event>
 4    1  0.4897575E-001  0.5000050E+01  0.7818608E-02  0.2136455E+00
        -11   -1    0    0    0    0  0.00000000000E+00  0.00000000000E+00  0.50000499739E+01  0.50000500000E+01  0.51100000000E-03 0. -1.
         11   -1    0    0    0    0 -0.00000000000E+00 -0.00000000000E+00 -0.50000499739E+01  0.50000500000E+01  0.51100000000E-03 0.  1.
     100001    1    1    2    0    0  0.20574394686E-01  0.49690588193E-02 -0.72114657145E-02  0.50000500000E+01  0.50000000000E+01 0. -1.
     100001    1    1    2    0    0 -0.20574394686E-01 -0.49690588193E-02  0.72114657145E-02  0.50000500000E+01  0.50000000000E+01 0.  1.
</event>
<event>
 4    1  0.4897575E-001  0.5000050E+01  0.7818608E-02  0.2136455E+00
        -11   -1    0    0    0    0  0.00000000000E+00  0.00000000000E+00  0.50000499739E+01  0.50000500000E+01  0.51100000000E-03 0. -1.
         11   -1    0    0    0    0 -0.00000000000E+00 -0.00000000000E+00 -0.50000499739E+01  0.50000500000E+01  0.51100000000E-03 0.  1.
     100001    1    1    2    0    0 -0.19541801120E-01 -0.14060700329E-02  0.10776988265E-01  0.50000500000E+01  0.50000000000E+01 0.  1.
     100001    1    1    2    0    0  0.19541801120E-01  0.14060700329E-02 -0.10776988265E-01  0.50000500000E+01  0.50000000000E+01 0.  0.
</event>
<event>
 4    1  0.4897575E-001  0.5000050E+01  0.7818608E-02  0.2136455E+00
        -11   -1    0    0    0    0  0.00000000000E+00  0.00000000000E+00  0.50000499739E+01  0.50000500000E+01  0.51100000000E-03 0. -1.
         11   -1    0    0    0    0 -0.00000000000E+00 -0.00000000000E+00 -0.50000499739E+01  0.50000500000E+01  0.51100000000E-03 0.  1.
     100001    1    1    2    0    0  0.76397956039E-02  0.44823595236E-03 -0.21010357152E-01  0.50000500000E+01  0.50000000000E+01 0.  1.
     100001    1    1    2    0    0 -0.76397956039E-02 -0.44823595236E-03  0.21010357152E-01  0.50000500000E+01  0.50000000000E+01 0.  0.
</event>
<event>
 4    1  0.4897575E-001  0.5000050E+01  0.7818608E-02  0.2136455E+00
        -11   -1    0    0    0    0  0.00000000000E+00  0.00000000000E+00  0.50000499739E+01  0.50000500000E+01  0.51100000000E-03 0.  1.
         11   -1    0    0    0    0 -0.00000000000E+00 -0.00000000000E+00 -0.50000499739E+01  0.50000500000E+01  0.51100000000E-03 0. -1.
     100001    1    1    2    0    0  0.11588009735E-01  0.19238627207E-02  0.19026804320E-01  0.50000500000E+01  0.50000000000E+01 0.  1.
     100001    1    1    2    0    0 -0.11588009735E-01 -0.19238627207E-02 -0.19026804320E-01  0.50000500000E+01  0.50000000000E+01 0.  0.
</event>
<event>
 4    1  0.4897575E-001  0.5000050E+01  0.7818608E-02  0.2136455E+00
        -11   -1    0    0    0    0  0.00000000000E+00  0.00000000000E+00  0.50000499739E+01  0.50000500000E+01  0.51100000000E-03 0.  1.
         11   -1    0    0    0    0 -0.00000000000E+00 -0.00000000000E+00 -0.50000499739E+01  0.50000500000E+01  0.51100000000E-03 0. -1.
     100001    1    1    2    0    0  0.15791399897E-01  0.82726478012E-02  0.13498054958E-01  0.50000500000E+01  0.50000000000E+01 0. -1.
     100001    1    1    2    0    0 -0.15791399897E-01 -0.82726478012E-02 -0.13498054958E-01  0.50000500000E+01  0.50000000000E+01 0.  0.
</event>
<event>
 4    1  0.4897575E-001  0.5000050E+01  0.7818608E-02  0.2136455E+00
        -11   -1    0    0    0    0  0.00000000000E+00  0.00000000000E+00  0.50000499739E+01  0.50000500000E+01  0.51100000000E-03 0. -1.
         11   -1    0    0    0    0 -0.00000000000E+00 -0.00000000000E+00 -0.50000499739E+01  0.50000500000E+01  0.51100000000E-03 0.  1.
     100001    1    1    2    0    0 -0.66340269463E-02  0.21249506416E-01 -0.21096595841E-02  0.50000500000E+01  0.50000000000E+01 0. -1.
     100001    1    1    2    0    0  0.66340269463E-02 -0.21249506416E-01  0.21096595841E-02  0.50000500000E+01  0.50000000000E+01 0.  1.
</event>
<event>
 4    1  0.4897575E-001  0.5000050E+01  0.7818608E-02  0.2136455E+00
        -11   -1    0    0    0    0  0.00000000000E+00  0.00000000000E+00  0.50000499739E+01  0.50000500000E+01  0.51100000000E-03 0.  1.
         11   -1    0    0    0    0 -0.00000000000E+00 -0.00000000000E+00 -0.50000499739E+01  0.50000500000E+01  0.51100000000E-03 0. -1.
     100001    1    1    2    0    0  0.32620383590E-02 -0.37919086361E-02  0.21794105502E-01  0.50000500000E+01  0.50000000000E+01 0.  1.
     100001    1    1    2    0    0 -0.32620383590E-02  0.37919086361E-02 -0.21794105502E-01  0.50000500000E+01  0.50000000000E+01 0.  0.
</event>
<event>
 4    1  0.4897575E-001  0.5000050E+01  0.7818608E-02  0.2136455E+00
        -11   -1    0    0    0    0  0.00000000000E+00  0.00000000000E+00  0.50000499739E+01  0.50000500000E+01  0.51100000000E-03 0. -1.
         11   -1    0    0    0    0 -0.00000000000E+00 -0.00000000000E+00 -0.50000499739E+01  0.50000500000E+01  0.51100000000E-03 0.  1.
     100001    1    1    2    0    0 -0.46889854028E-02 -0.14923172375E-01 -0.15978574472E-01  0.50000500000E+01  0.50000000000E+01 0. -1.
     100001    1    1    2    0    0  0.46889854028E-02  0.14923172375E-01  0.15978574472E-01  0.50000500000E+01  0.50000000000E+01 0. -1.
</event>
<event>
 4    1  0.4897575E-001  0.5000050E+01  0.7818608E-02  0.2136455E+00
        -11   -1    0    0    0    0  0.00000000000E+00  0.00000000000E+00  0.50000499739E+01  0.50000500000E+01  0.51100000000E-03 0.  1.
         11   -1    0    0    0    0 -0.00000000000E+00 -0.00000000000E+00 -0.50000499739E+01  0.50000500000E+01  0.51100000000E-03 0. -1.
     100001    1    1    2    0    0  0.24730191078E-02  0.10495917039E-01 -0.19588833605E-01  0.50000500000E+01  0.50000000000E+01 0. -1.
     100001    1    1    2    0    0 -0.24730191078E-02 -0.10495917039E-01  0.19588833605E-01  0.50000500000E+01  0.50000000000E+01 0. -1.
</event>
<event>
 4    1  0.4897575E-001  0.5000050E+01  0.7818608E-02  0.2136455E+00
        -11   -1    0    0    0    0  0.00000000000E+00  0.00000000000E+00  0.50000499739E+01  0.50000500000E+01  0.51100000000E-03 0. -1.
         11   -1    0    0    0    0 -0.00000000000E+00 -0.00000000000E+00 -0.50000499739E+01  0.50000500000E+01  0.51100000000E-03 0.  1.
     100001    1    1    2    0    0 -0.16950527892E-01  0.61485488525E-02 -0.13224123834E-01  0.50000500000E+01  0.50000000000E+01 0.  1.
     100001    1    1    2    0    0  0.16950527892E-01 -0.61485488525E-02  0.13224123834E-01  0.50000500000E+01  0.50000000000E+01 0. -1.
</event>
<event>
 4    1  0.4897575E-001  0.5000050E+01  0.7818608E-02  0.2136455E+00
        -11   -1    0    0    0    0  0.00000000000E+00  0.00000000000E+00  0.50000499739E+01  0.50000500000E+01  0.51100000000E-03 0. -1.
         11   -1    0    0    0    0 -0.00000000000E+00 -0.00000000000E+00 -0.50000499739E+01  0.50000500000E+01  0.51100000000E-03 0.  1.
     100001    1    1    2    0    0  0.86044989008E-02  0.74499355882E-02 -0.19247429917E-01  0.50000500000E+01  0.50000000000E+01 0.  0.
     100001    1    1    2    0    0 -0.86044989008E-02 -0.74499355882E-02  0.19247429917E-01  0.50000500000E+01  0.50000000000E+01 0. -1.
</event>
<event>
 4    1  0.4897575E-001  0.5000050E+01  0.7818608E-02  0.2136455E+00
        -11   -1    0    0    0    0  0.00000000000E+00  0.00000000000E+00  0.50000499739E+01  0.50000500000E+01  0.51100000000E-03 0. -1.
         11   -1    0    0    0    0 -0.00000000000E+00 -0.00000000000E+00 -0.50000499739E+01  0.50000500000E+01  0.51100000000E-03 0.  1.
     100001    1    1    2    0    0  0.24761068349E-02 -0.21538721159E-01 -0.54731056790E-02  0.50000500000E+01  0.50000000000E+01 0. -1.
     100001    1    1    2    0    0 -0.24761068349E-02  0.21538721159E-01  0.54731056790E-02  0.50000500000E+01  0.50000000000E+01 0.  0.
</event>
<event>
 4    1  0.4897575E-001  0.5000050E+01  0.7818608E-02  0.2136455E+00
        -11   -1    0    0    0    0  0.00000000000E+00  0.00000000000E+00  0.50000499739E+01  0.50000500000E+01  0.51100000000E-03 0. -1.
         11   -1    0    0    0    0 -0.00000000000E+00 -0.00000000000E+00 -0.50000499739E+01  0.50000500000E+01  0.51100000000E-03 0.  1.
     100001    1    1    2    0    0  0.72861489030E-02 -0.46843877957E-02 -0.20614825858E-01  0.50000500000E+01  0.50000000000E+01 0.  1.
     100001    1    1    2    0    0 -0.72861489030E-02  0.46843877957E-02  0.20614825858E-01  0.50000500000E+01  0.50000000000E+01 0.  0.
</event>
<event>
 4    1  0.4897575E-001  0.5000050E+01  0.7818608E-02  0.2136455E+00
        -11   -1    0    0    0    0  0.00000000000E+00  0.00000000000E+00  0.50000499739E+01  0.50000500000E+01  0.51100000000E-03 0.  1.
         11   -1    0    0    0    0 -0.00000000000E+00 -0.00000000000E+00 -0.50000499739E+01  0.50000500000E+01  0.51100000000E-03 0. -1.
     100001    1    1    2    0    0 -0.20217400403E-02 -0.22265436590E-01  0.40669480529E-03  0.50000500000E+01  0.50000000000E+01 0.  1.
     100001    1    1    2    0    0  0.20217400403E-02  0.22265436590E-01 -0.40669480529E-03  0.50000500000E+01  0.50000000000E+01 0. -1.
</event>
<event>
 4    1  0.4897575E-001  0.5000050E+01  0.7818608E-02  0.2136455E+00
        -11   -1    0    0    0    0  0.00000000000E+00  0.00000000000E+00  0.50000499739E+01  0.50000500000E+01  0.51100000000E-03 0.  1.
         11   -1    0    0    0    0 -0.00000000000E+00 -0.00000000000E+00 -0.50000499739E+01  0.50000500000E+01  0.51100000000E-03 0. -1.
     100001    1    1    2    0    0  0.15929915824E-01  0.43896352303E-02  0.15065569500E-01  0.50000500000E+01  0.50000000000E+01 0.  0.
     100001    1    1    2    0    0 -0.15929915824E-01 -0.43896352303E-02 -0.15065569500E-01  0.50000500000E+01  0.50000000000E+01 0. -1.
</event>
<event>
 4    1  0.4897575E-001  0.5000050E+01  0.7818608E-02  0.2136455E+00
        -11   -1    0    0    0    0  0.00000000000E+00  0.00000000000E+00  0.50000499739E+01  0.50000500000E+01  0.51100000000E-03 0.  1.
         11   -1    0    0    0    0 -0.00000000000E+00 -0.00000000000E+00 -0.50000499739E+01  0.50000500000E+01  0.51100000000E-03 0. -1.
     100001    1    1    2    0    0  0.92636065238E-02  0.12315727526E-01 -0.16202189657E-01  0.50000500000E+01  0.50000000000E+01 0. -1.
     100001    1    1    2    0    0 -0.92636065238E-02 -0.12315727526E-01  0.16202189657E-01  0.50000500000E+01  0.50000000000E+01 0. -1.
</event>
<event>
 4    1  0.4897575E-001  0.5000050E+01  0.7818608E-02  0.2136455E+00
        -11   -1    0    0    0    0  0.00000000000E+00  0.00000000000E+00  0.50000499739E+01  0.50000500000E+01  0.51100000000E-03 0. -1.
         11   -1    0    0    0    0 -0.00000000000E+00 -0.00000000000E+00 -0.50000499739E+01  0.50000500000E+01  0.51100000000E-03 0.  1.
     100001    1    1    2    0    0  0.16479861425E-01 -0.57418647592E-02  0.13980259528E-01  0.50000500000E+01  0.50000000000E+01 0.  0.
     100001    1    1    2    0    0 -0.16479861425E-01  0.57418647592E-02 -0.13980259528E-01  0.50000500000E+01  0.50000000000E+01 0.  0.
</event>
<event>
 4    1  0.4897575E-001  0.5000050E+01  0.7818608E-02  0.2136455E+00
        -11   -1    0    0    0    0  0.00000000000E+00  0.00000000000E+00  0.50000499739E+01  0.50000500000E+01  0.51100000000E-03 0.  1.
         11   -1    0    0    0    0 -0.00000000000E+00 -0.00000000000E+00 -0.50000499739E+01  0.50000500000E+01  0.51100000000E-03 0. -1.
     100001    1    1    2    0    0  0.21406055936E-01 -0.40773992065E-02 -0.50157835847E-02  0.50000500000E+01  0.50000000000E+01 0. -1.
     100001    1    1    2    0    0 -0.21406055936E-01  0.40773992065E-02  0.50157835847E-02  0.50000500000E+01  0.50000000000E+01 0.  1.
</event>
<event>
 4    1  0.4897575E-001  0.5000050E+01  0.7818608E-02  0.2136455E+00
        -11   -1    0    0    0    0  0.00000000000E+00  0.00000000000E+00  0.50000499739E+01  0.50000500000E+01  0.51100000000E-03 0.  1.
         11   -1    0    0    0    0 -0.00000000000E+00 -0.00000000000E+00 -0.50000499739E+01  0.50000500000E+01  0.51100000000E-03 0. -1.
     100001    1    1    2    0    0  0.82310893564E-02 -0.19410538871E-01 -0.74486675806E-02  0.50000500000E+01  0.50000000000E+01 0. -1.
     100001    1    1    2    0    0 -0.82310893564E-02  0.19410538871E-01  0.74486675806E-02  0.50000500000E+01  0.50000000000E+01 0.  1.
</event>
<event>
 4    1  0.4897575E-001  0.5000050E+01  0.7818608E-02  0.2136455E+00
        -11   -1    0    0    0    0  0.00000000000E+00  0.00000000000E+00  0.50000499739E+01  0.50000500000E+01  0.51100000000E-03 0.  1.
         11   -1    0    0    0    0 -0.00000000000E+00 -0.00000000000E+00 -0.50000499739E+01  0.50000500000E+01  0.51100000000E-03 0. -1.
     100001    1    1    2    0    0 -0.15591405313E-01  0.16013632972E-01 -0.68857779711E-03  0.50000500000E+01  0.50000000000E+01 0.  0.
     100001    1    1    2    0    0  0.15591405313E-01 -0.16013632972E-01  0.68857779711E-03  0.50000500000E+01  0.50000000000E+01 0.  1.
</event>
<event>
 4    1  0.4897575E-001  0.5000050E+01  0.7818608E-02  0.2136455E+00
        -11   -1    0    0    0    0  0.00000000000E+00  0.00000000000E+00  0.50000499739E+01  0.50000500000E+01  0.51100000000E-03 0.  1.
         11   -1    0    0    0    0 -0.00000000000E+00 -0.00000000000E+00 -0.50000499739E+01  0.50000500000E+01  0.51100000000E-03 0. -1.
     100001    1    1    2    0    0  0.19773031963E-01  0.19780534558E-02  0.10252658753E-01  0.50000500000E+01  0.50000000000E+01 0.  1.
     100001    1    1    2    0    0 -0.19773031963E-01 -0.19780534558E-02 -0.10252658753E-01  0.50000500000E+01  0.50000000000E+01 0. -1.
</event>
<event>
 4    1  0.4897575E-001  0.5000050E+01  0.7818608E-02  0.2136455E+00
        -11   -1    0    0    0    0  0.00000000000E+00  0.00000000000E+00  0.50000499739E+01  0.50000500000E+01  0.51100000000E-03 0.  1.
         11   -1    0    0    0    0 -0.00000000000E+00 -0.00000000000E+00 -0.50000499739E+01  0.50000500000E+01  0.51100000000E-03 0. -1.
     100001    1    1    2    0    0 -0.44204639989E-02  0.69663589614E-02 -0.20782969972E-01  0.50000500000E+01  0.50000000000E+01 0. -1.
     100001    1    1    2    0    0  0.44204639989E-02 -0.69663589614E-02  0.20782969972E-01  0.50000500000E+01  0.50000000000E+01 0.  1.
</event>
<event>
 4    1  0.4897575E-001  0.5000050E+01  0.7818608E-02  0.2136455E+00
        -11   -1    0    0    0    0  0.00000000000E+00  0.00000000000E+00  0.50000499739E+01  0.50000500000E+01  0.51100000000E-03 0. -1.
         11   -1    0    0    0    0 -0.00000000000E+00 -0.00000000000E+00 -0.50000499739E+01  0.50000500000E+01  0.51100000000E-03 0.  1.
     100001    1    1    2    0    0 -0.28513963635E-02  0.11489806607E-01  0.18969880941E-01  0.50000500000E+01  0.50000000000E+01 0. -1.
     100001    1    1    2    0    0  0.28513963635E-02 -0.11489806607E-01 -0.18969880941E-01  0.50000500000E+01  0.50000000000E+01 0.  0.
</event>
<event>
 4    1  0.4897575E-001  0.5000050E+01  0.7818608E-02  0.2136455E+00
        -11   -1    0    0    0    0  0.00000000000E+00  0.00000000000E+00  0.50000499739E+01  0.50000500000E+01  0.51100000000E-03 0.  1.
         11   -1    0    0    0    0 -0.00000000000E+00 -0.00000000000E+00 -0.50000499739E+01  0.50000500000E+01  0.51100000000E-03 0. -1.
     100001    1    1    2    0    0 -0.19278326264E-01 -0.10477820268E-01  0.43085866487E-02  0.50000500000E+01  0.50000000000E+01 0.  0.
     100001    1    1    2    0    0  0.19278326264E-01  0.10477820268E-01 -0.43085866487E-02  0.50000500000E+01  0.50000000000E+01 0.  1.
</event>
<event>
 4    1  0.4897575E-001  0.5000050E+01  0.7818608E-02  0.2136455E+00
        -11   -1    0    0    0    0  0.00000000000E+00  0.00000000000E+00  0.50000499739E+01  0.50000500000E+01  0.51100000000E-03 0. -1.
         11   -1    0    0    0    0 -0.00000000000E+00 -0.00000000000E+00 -0.50000499739E+01  0.50000500000E+01  0.51100000000E-03 0.  1.
     100001    1    1    2    0    0  0.17972441825E-01  0.12556777293E-01  0.43955862930E-02  0.50000500000E+01  0.50000000000E+01 0. -1.
     100001    1    1    2    0    0 -0.17972441825E-01 -0.12556777293E-01 -0.43955862930E-02  0.50000500000E+01  0.50000000000E+01 0.  0.
</event>
<event>
 4    1  0.4897575E-001  0.5000050E+01  0.7818608E-02  0.2136455E+00
        -11   -1    0    0    0    0  0.00000000000E+00  0.00000000000E+00  0.50000499739E+01  0.50000500000E+01  0.51100000000E-03 0. -1.
         11   -1    0    0    0    0 -0.00000000000E+00 -0.00000000000E+00 -0.50000499739E+01  0.50000500000E+01  0.51100000000E-03 0.  1.
     100001    1    1    2    0    0 -0.14606833243E-01 -0.24626208970E-02 -0.16750475245E-01  0.50000500000E+01  0.50000000000E+01 0.  1.
     100001    1    1    2    0    0  0.14606833243E-01  0.24626208970E-02  0.16750475245E-01  0.50000500000E+01  0.50000000000E+01 0.  0.
</event>
<event>
 4    1  0.4897575E-001  0.5000050E+01  0.7818608E-02  0.2136455E+00
        -11   -1    0    0    0    0  0.00000000000E+00  0.00000000000E+00  0.50000499739E+01  0.50000500000E+01  0.51100000000E-03 0. -1.
         11   -1    0    0    0    0 -0.00000000000E+00 -0.00000000000E+00 -0.50000499739E+01  0.50000500000E+01  0.51100000000E-03 0.  1.
     100001    1    1    2    0    0  0.10074791514E-01  0.14588608717E-01  0.13626208997E-01  0.50000500000E+01  0.50000000000E+01 0. -1.
     100001    1    1    2    0    0 -0.10074791514E-01 -0.14588608717E-01 -0.13626208997E-01  0.50000500000E+01  0.50000000000E+01 0.  1.
</event>
<event>
 4    1  0.4897575E-001  0.5000050E+01  0.7818608E-02  0.2136455E+00
        -11   -1    0    0    0    0  0.00000000000E+00  0.00000000000E+00  0.50000499739E+01  0.50000500000E+01  0.51100000000E-03 0. -1.
         11   -1    0    0    0    0 -0.00000000000E+00 -0.00000000000E+00 -0.50000499739E+01  0.50000500000E+01  0.51100000000E-03 0.  1.
     100001    1    1    2    0    0  0.13710207353E-01 -0.99360833857E-02 -0.14605032054E-01  0.50000500000E+01  0.50000000000E+01 0.  1.
     100001    1    1    2    0    0 -0.13710207353E-01  0.99360833857E-02  0.14605032054E-01  0.50000500000E+01  0.50000000000E+01 0. -1.
</event>
<event>
 4    1  0.4897575E-001  0.5000050E+01  0.7818608E-02  0.2136455E+00
        -11   -1    0    0    0    0  0.00000000000E+00  0.00000000000E+00  0.50000499739E+01  0.50000500000E+01  0.51100000000E-03 0. -1.
         11   -1    0    0    0    0 -0.00000000000E+00 -0.00000000000E+00 -0.50000499739E+01  0.50000500000E+01  0.51100000000E-03 0.  1.
     100001    1    1    2    0    0  0.10600512898E-01  0.84921457612E-02 -0.17762744345E-01  0.50000500000E+01  0.50000000000E+01 0.  1.
     100001    1    1    2    0    0 -0.10600512898E-01 -0.84921457612E-02  0.17762744345E-01  0.50000500000E+01  0.50000000000E+01 0. -1.
</event>
<event>
 4    1  0.4897575E-001  0.5000050E+01  0.7818608E-02  0.2136455E+00
        -11   -1    0    0    0    0  0.00000000000E+00  0.00000000000E+00  0.50000499739E+01  0.50000500000E+01  0.51100000000E-03 0. -1.
         11   -1    0    0    0    0 -0.00000000000E+00 -0.00000000000E+00 -0.50000499739E+01  0.50000500000E+01  0.51100000000E-03 0.  1.
     100001    1    1    2    0    0  0.18487861126E-01  0.12560634865E-01  0.65722353306E-03  0.50000500000E+01  0.50000000000E+01 0. -1.
     100001    1    1    2    0    0 -0.18487861126E-01 -0.12560634865E-01 -0.65722353306E-03  0.50000500000E+01  0.50000000000E+01 0.  1.
</event>
<event>
 4    1  0.4897575E-001  0.5000050E+01  0.7818608E-02  0.2136455E+00
        -11   -1    0    0    0    0  0.00000000000E+00  0.00000000000E+00  0.50000499739E+01  0.50000500000E+01  0.51100000000E-03 0. -1.
         11   -1    0    0    0    0 -0.00000000000E+00 -0.00000000000E+00 -0.50000499739E+01  0.50000500000E+01  0.51100000000E-03 0.  1.
     100001    1    1    2    0    0 -0.21119293440E-01 -0.68426777412E-02  0.26750151232E-02  0.50000500000E+01  0.50000000000E+01 0.  1.
     100001    1    1    2    0    0  0.21119293440E-01  0.68426777412E-02 -0.26750151232E-02  0.50000500000E+01  0.50000000000E+01 0.  0.
</event>
<event>
 4    1  0.4897575E-001  0.5000050E+01  0.7818608E-02  0.2136455E+00
        -11   -1    0    0    0    0  0.00000000000E+00  0.00000000000E+00  0.50000499739E+01  0.50000500000E+01  0.51100000000E-03 0. -1.
         11   -1    0    0    0    0 -0.00000000000E+00 -0.00000000000E+00 -0.50000499739E+01  0.50000500000E+01  0.51100000000E-03 0.  1.
     100001    1    1    2    0    0  0.28849956933E-02 -0.45100108475E-02 -0.21710345506E-01  0.50000500000E+01  0.50000000000E+01 0.  0.
     100001    1    1    2    0    0 -0.28849956933E-02  0.45100108475E-02  0.21710345506E-01  0.50000500000E+01  0.50000000000E+01 0. -1.
</event>
<event>
 4    1  0.4897575E-001  0.5000050E+01  0.7818608E-02  0.2136455E+00
        -11   -1    0    0    0    0  0.00000000000E+00  0.00000000000E+00  0.50000499739E+01  0.50000500000E+01  0.51100000000E-03 0. -1.
         11   -1    0    0    0    0 -0.00000000000E+00 -0.00000000000E+00 -0.50000499739E+01  0.50000500000E+01  0.51100000000E-03 0.  1.
     100001    1    1    2    0    0 -0.10720251372E-01  0.97307359963E-02 -0.17040876958E-01  0.50000500000E+01  0.50000000000E+01 0.  1.
     100001    1    1    2    0    0  0.10720251372E-01 -0.97307359963E-02  0.17040876958E-01  0.50000500000E+01  0.50000000000E+01 0. -1.
</event>
<event>
 4    1  0.4897575E-001  0.5000050E+01  0.7818608E-02  0.2136455E+00
        -11   -1    0    0    0    0  0.00000000000E+00  0.00000000000E+00  0.50000499739E+01  0.50000500000E+01  0.51100000000E-03 0. -1.
         11   -1    0    0    0    0 -0.00000000000E+00 -0.00000000000E+00 -0.50000499739E+01  0.50000500000E+01  0.51100000000E-03 0.  1.
     100001    1    1    2    0    0 -0.21218061036E-01 -0.25338064776E-02  0.65860618437E-02  0.50000500000E+01  0.50000000000E+01 0. -1.
     100001    1    1    2    0    0  0.21218061036E-01  0.25338064776E-02 -0.65860618437E-02  0.50000500000E+01  0.50000000000E+01 0.  1.
</event>
<event>
 4    1  0.4897575E-001  0.5000050E+01  0.7818608E-02  0.2136455E+00
        -11   -1    0    0    0    0  0.00000000000E+00  0.00000000000E+00  0.50000499739E+01  0.50000500000E+01  0.51100000000E-03 0.  1.
         11   -1    0    0    0    0 -0.00000000000E+00 -0.00000000000E+00 -0.50000499739E+01  0.50000500000E+01  0.51100000000E-03 0. -1.
     100001    1    1    2    0    0 -0.15082267822E-01 -0.43971004682E-03  0.16502555936E-01  0.50000500000E+01  0.50000000000E+01 0.  1.
     100001    1    1    2    0    0  0.15082267822E-01  0.43971004682E-03 -0.16502555936E-01  0.50000500000E+01  0.50000000000E+01 0.  0.
</event>
<event>
 4    1  0.4897575E-001  0.5000050E+01  0.7818608E-02  0.2136455E+00
        -11   -1    0    0    0    0  0.00000000000E+00  0.00000000000E+00  0.50000499739E+01  0.50000500000E+01  0.51100000000E-03 0.  1.
         11   -1    0    0    0    0 -0.00000000000E+00 -0.00000000000E+00 -0.50000499739E+01  0.50000500000E+01  0.51100000000E-03 0. -1.
     100001    1    1    2    0    0  0.15720788204E-01 -0.15224732350E-01 -0.45898630798E-02  0.50000500000E+01  0.50000000000E+01 0. -1.
     100001    1    1    2    0    0 -0.15720788204E-01  0.15224732350E-01  0.45898630798E-02  0.50000500000E+01  0.50000000000E+01 0.  1.
</event>
<event>
 4    1  0.4897575E-001  0.5000050E+01  0.7818608E-02  0.2136455E+00
        -11   -1    0    0    0    0  0.00000000000E+00  0.00000000000E+00  0.50000499739E+01  0.50000500000E+01  0.51100000000E-03 0. -1.
         11   -1    0    0    0    0 -0.00000000000E+00 -0.00000000000E+00 -0.50000499739E+01  0.50000500000E+01  0.51100000000E-03 0.  1.
     100001    1    1    2    0    0 -0.11236587659E-01 -0.18769633098E-01  0.46306015964E-02  0.50000500000E+01  0.50000000000E+01 0.  0.
     100001    1    1    2    0    0  0.11236587659E-01  0.18769633098E-01 -0.46306015964E-02  0.50000500000E+01  0.50000000000E+01 0.  1.
</event>
<event>
 4    1  0.4897575E-001  0.5000050E+01  0.7818608E-02  0.2136455E+00
        -11   -1    0    0    0    0  0.00000000000E+00  0.00000000000E+00  0.50000499739E+01  0.50000500000E+01  0.51100000000E-03 0. -1.
         11   -1    0    0    0    0 -0.00000000000E+00 -0.00000000000E+00 -0.50000499739E+01  0.50000500000E+01  0.51100000000E-03 0.  1.
     100001    1    1    2    0    0 -0.76768363891E-02  0.18835265930E-01  0.92898568560E-02  0.50000500000E+01  0.50000000000E+01 0. -1.
     100001    1    1    2    0    0  0.76768363891E-02 -0.18835265930E-01 -0.92898568560E-02  0.50000500000E+01  0.50000000000E+01 0.  1.
</event>
<event>
 4    1  0.4897575E-001  0.5000050E+01  0.7818608E-02  0.2136455E+00
        -11   -1    0    0    0    0  0.00000000000E+00  0.00000000000E+00  0.50000499739E+01  0.50000500000E+01  0.51100000000E-03 0.  1.
         11   -1    0    0    0    0 -0.00000000000E+00 -0.00000000000E+00 -0.50000499739E+01  0.50000500000E+01  0.51100000000E-03 0. -1.
     100001    1    1    2    0    0 -0.54766806198E-02  0.29485902945E-02 -0.21478228155E-01  0.50000500000E+01  0.50000000000E+01 0. -1.
     100001    1    1    2    0    0  0.54766806198E-02 -0.29485902945E-02  0.21478228155E-01  0.50000500000E+01  0.50000000000E+01 0.  0.
</event>
<event>
 4    1  0.4897575E-001  0.5000050E+01  0.7818608E-02  0.2136455E+00
        -11   -1    0    0    0    0  0.00000000000E+00  0.00000000000E+00  0.50000499739E+01  0.50000500000E+01  0.51100000000E-03 0.  1.
         11   -1    0    0    0    0 -0.00000000000E+00 -0.00000000000E+00 -0.50000499739E+01  0.50000500000E+01  0.51100000000E-03 0. -1.
     100001    1    1    2    0    0 -0.18659194091E-01 -0.91201917848E-02 -0.82860773400E-02  0.50000500000E+01  0.50000000000E+01 0. -1.
     100001    1    1    2    0    0  0.18659194091E-01  0.91201917848E-02  0.82860773400E-02  0.50000500000E+01  0.50000000000E+01 0.  1.
</event>
<event>
 4    1  0.4897575E-001  0.5000050E+01  0.7818608E-02  0.2136455E+00
        -11   -1    0    0    0    0  0.00000000000E+00  0.00000000000E+00  0.50000499739E+01  0.50000500000E+01  0.51100000000E-03 0.  1.
         11   -1    0    0    0    0 -0.00000000000E+00 -0.00000000000E+00 -0.50000499739E+01  0.50000500000E+01  0.51100000000E-03 0. -1.
     100001    1    1    2    0    0  0.17530587752E-01 -0.13817938039E-01 -0.13212045283E-02  0.50000500000E+01  0.50000000000E+01 0. -1.
     100001    1    1    2    0    0 -0.17530587752E-01  0.13817938039E-01  0.13212045283E-02  0.50000500000E+01  0.50000000000E+01 0.  1.
</event>
<event>
 4    1  0.4897575E-001  0.5000050E+01  0.7818608E-02  0.2136455E+00
        -11   -1    0    0    0    0  0.00000000000E+00  0.00000000000E+00  0.50000499739E+01  0.50000500000E+01  0.51100000000E-03 0. -1.
         11   -1    0    0    0    0 -0.00000000000E+00 -0.00000000000E+00 -0.50000499739E+01  0.50000500000E+01  0.51100000000E-03 0.  1.
     100001    1    1    2    0    0  0.18219631369E-01  0.25234833933E-02 -0.12715327929E-01  0.50000500000E+01  0.50000000000E+01 0.  1.
     100001    1    1    2    0    0 -0.18219631369E-01 -0.25234833933E-02  0.12715327929E-01  0.50000500000E+01  0.50000000000E+01 0. -1.
</event>
<event>
 4    1  0.4897575E-001  0.5000050E+01  0.7818608E-02  0.2136455E+00
        -11   -1    0    0    0    0  0.00000000000E+00  0.00000000000E+00  0.50000499739E+01  0.50000500000E+01  0.51100000000E-03 0. -1.
         11   -1    0    0    0    0 -0.00000000000E+00 -0.00000000000E+00 -0.50000499739E+01  0.50000500000E+01  0.51100000000E-03 0.  1.
     100001    1    1    2    0    0  0.65720811745E-02 -0.12325315298E-01  0.17461295823E-01  0.50000500000E+01  0.50000000000E+01 0. -1.
     100001    1    1    2    0    0 -0.65720811745E-02  0.12325315298E-01 -0.17461295823E-01  0.50000500000E+01  0.50000000000E+01 0.  1.
</event>
<event>
 4    1  0.4897575E-001  0.5000050E+01  0.7818608E-02  0.2136455E+00
        -11   -1    0    0    0    0  0.00000000000E+00  0.00000000000E+00  0.50000499739E+01  0.50000500000E+01  0.51100000000E-03 0. -1.
         11   -1    0    0    0    0 -0.00000000000E+00 -0.00000000000E+00 -0.50000499739E+01  0.50000500000E+01  0.51100000000E-03 0.  1.
     100001    1    1    2    0    0  0.10969055220E-01 -0.17511472227E-01 -0.85457982664E-02  0.50000500000E+01  0.50000000000E+01 0.  1.
     100001    1    1    2    0    0 -0.10969055220E-01  0.17511472227E-01  0.85457982664E-02  0.50000500000E+01  0.50000000000E+01 0. -1.
</event>
<event>
 4    1  0.4897575E-001  0.5000050E+01  0.7818608E-02  0.2136455E+00
        -11   -1    0    0    0    0  0.00000000000E+00  0.00000000000E+00  0.50000499739E+01  0.50000500000E+01  0.51100000000E-03 0.  1.
         11   -1    0    0    0    0 -0.00000000000E+00 -0.00000000000E+00 -0.50000499739E+01  0.50000500000E+01  0.51100000000E-03 0. -1.
     100001    1    1    2    0    0 -0.13195126782E-01  0.98798890573E-02  0.15108902059E-01  0.50000500000E+01  0.50000000000E+01 0.  0.
     100001    1    1    2    0    0  0.13195126782E-01 -0.98798890573E-02 -0.15108902059E-01  0.50000500000E+01  0.50000000000E+01 0.  1.
</event>
<event>
 4    1  0.4897575E-001  0.5000050E+01  0.7818608E-02  0.2136455E+00
        -11   -1    0    0    0    0  0.00000000000E+00  0.00000000000E+00  0.50000499739E+01  0.50000500000E+01  0.51100000000E-03 0.  1.
         11   -1    0    0    0    0 -0.00000000000E+00 -0.00000000000E+00 -0.50000499739E+01  0.50000500000E+01  0.51100000000E-03 0. -1.
     100001    1    1    2    0    0 -0.15898420315E-01  0.13776835050E-01  0.75790202196E-02  0.50000500000E+01  0.50000000000E+01 0.  0.
     100001    1    1    2    0    0  0.15898420315E-01 -0.13776835050E-01 -0.75790202196E-02  0.50000500000E+01  0.50000000000E+01 0.  1.
</event>
<event>
 4    1  0.4897575E-001  0.5000050E+01  0.7818608E-02  0.2136455E+00
        -11   -1    0    0    0    0  0.00000000000E+00  0.00000000000E+00  0.50000499739E+01  0.50000500000E+01  0.51100000000E-03 0. -1.
         11   -1    0    0    0    0 -0.00000000000E+00 -0.00000000000E+00 -0.50000499739E+01  0.50000500000E+01  0.51100000000E-03 0.  1.
     100001    1    1    2    0    0  0.83332194523E-02 -0.16572257962E-01 -0.12486801816E-01  0.50000500000E+01  0.50000000000E+01 0.  0.
     100001    1    1    2    0    0 -0.83332194523E-02  0.16572257962E-01  0.12486801816E-01  0.50000500000E+01  0.50000000000E+01 0.  1.
</event>
<event>
 4    1  0.4897575E-001  0.5000050E+01  0.7818608E-02  0.2136455E+00
        -11   -1    0    0    0    0  0.00000000000E+00  0.00000000000E+00  0.50000499739E+01  0.50000500000E+01  0.51100000000E-03 0.  1.
         11   -1    0    0    0    0 -0.00000000000E+00 -0.00000000000E+00 -0.50000499739E+01  0.50000500000E+01  0.51100000000E-03 0. -1.
     100001    1    1    2    0    0  0.15192134535E-01  0.78390621476E-02  0.14413557955E-01  0.50000500000E+01  0.50000000000E+01 0.  1.
     100001    1    1    2    0    0 -0.15192134535E-01 -0.78390621476E-02 -0.14413557955E-01  0.50000500000E+01  0.50000000000E+01 0. -1.
</event>
<event>
 4    1  0.4897575E-001  0.5000050E+01  0.7818608E-02  0.2136455E+00
        -11   -1    0    0    0    0  0.00000000000E+00  0.00000000000E+00  0.50000499739E+01  0.50000500000E+01  0.51100000000E-03 0.  1.
         11   -1    0    0    0    0 -0.00000000000E+00 -0.00000000000E+00 -0.50000499739E+01  0.50000500000E+01  0.51100000000E-03 0. -1.
     100001    1    1    2    0    0  0.52872246426E-02 -0.81498101939E-02 -0.20140217213E-01  0.50000500000E+01  0.50000000000E+01 0.  0.
     100001    1    1    2    0    0 -0.52872246426E-02  0.81498101939E-02  0.20140217213E-01  0.50000500000E+01  0.50000000000E+01 0.  1.
</event>
<event>
 4    1  0.4897575E-001  0.5000050E+01  0.7818608E-02  0.2136455E+00
        -11   -1    0    0    0    0  0.00000000000E+00  0.00000000000E+00  0.50000499739E+01  0.50000500000E+01  0.51100000000E-03 0. -1.
         11   -1    0    0    0    0 -0.00000000000E+00 -0.00000000000E+00 -0.50000499739E+01  0.50000500000E+01  0.51100000000E-03 0.  1.
     100001    1    1    2    0    0 -0.15762017564E-01  0.84877547619E-02 -0.13398482056E-01  0.50000500000E+01  0.50000000000E+01 0. -1.
     100001    1    1    2    0    0  0.15762017564E-01 -0.84877547619E-02  0.13398482056E-01  0.50000500000E+01  0.50000000000E+01 0. -1.
</event>
<event>
 4    1  0.4897575E-001  0.5000050E+01  0.7818608E-02  0.2136455E+00
        -11   -1    0    0    0    0  0.00000000000E+00  0.00000000000E+00  0.50000499739E+01  0.50000500000E+01  0.51100000000E-03 0.  1.
         11   -1    0    0    0    0 -0.00000000000E+00 -0.00000000000E+00 -0.50000499739E+01  0.50000500000E+01  0.51100000000E-03 0. -1.
     100001    1    1    2    0    0  0.22685482271E-03  0.83690777110E-02 -0.20734260902E-01  0.50000500000E+01  0.50000000000E+01 0.  0.
     100001    1    1    2    0    0 -0.22685482271E-03 -0.83690777110E-02  0.20734260902E-01  0.50000500000E+01  0.50000000000E+01 0.  0.
</event>
<event>
 4    1  0.4897575E-001  0.5000050E+01  0.7818608E-02  0.2136455E+00
        -11   -1    0    0    0    0  0.00000000000E+00  0.00000000000E+00  0.50000499739E+01  0.50000500000E+01  0.51100000000E-03 0.  1.
         11   -1    0    0    0    0 -0.00000000000E+00 -0.00000000000E+00 -0.50000499739E+01  0.50000500000E+01  0.51100000000E-03 0. -1.
     100001    1    1    2    0    0  0.95643549122E-02  0.18923815559E-01  0.71003394143E-02  0.50000500000E+01  0.50000000000E+01 0.  0.
     100001    1    1    2    0    0 -0.95643549122E-02 -0.18923815559E-01 -0.71003394143E-02  0.50000500000E+01  0.50000000000E+01 0.  1.
</event>
<event>
 4    1  0.4897575E-001  0.5000050E+01  0.7818608E-02  0.2136455E+00
        -11   -1    0    0    0    0  0.00000000000E+00  0.00000000000E+00  0.50000499739E+01  0.50000500000E+01  0.51100000000E-03 0.  1.
         11   -1    0    0    0    0 -0.00000000000E+00 -0.00000000000E+00 -0.50000499739E+01  0.50000500000E+01  0.51100000000E-03 0. -1.
     100001    1    1    2    0    0  0.21144659552E-01  0.38964932534E-02  0.61419225632E-02  0.50000500000E+01  0.50000000000E+01 0.  1.
     100001    1    1    2    0    0 -0.21144659552E-01 -0.38964932534E-02 -0.61419225632E-02  0.50000500000E+01  0.50000000000E+01 0. -1.
</event>
<event>
 4    1  0.4897575E-001  0.5000050E+01  0.7818608E-02  0.2136455E+00
        -11   -1    0    0    0    0  0.00000000000E+00  0.00000000000E+00  0.50000499739E+01  0.50000500000E+01  0.51100000000E-03 0. -1.
         11   -1    0    0    0    0 -0.00000000000E+00 -0.00000000000E+00 -0.50000499739E+01  0.50000500000E+01  0.51100000000E-03 0.  1.
     100001    1    1    2    0    0 -0.87884821087E-02  0.13358843630E-01  0.15630303231E-01  0.50000500000E+01  0.50000000000E+01 0.  0.
     100001    1    1    2    0    0  0.87884821087E-02 -0.13358843630E-01 -0.15630303231E-01  0.50000500000E+01  0.50000000000E+01 0.  1.
</event>
<event>
 4    1  0.4897575E-001  0.5000050E+01  0.7818608E-02  0.2136455E+00
        -11   -1    0    0    0    0  0.00000000000E+00  0.00000000000E+00  0.50000499739E+01  0.50000500000E+01  0.51100000000E-03 0.  1.
         11   -1    0    0    0    0 -0.00000000000E+00 -0.00000000000E+00 -0.50000499739E+01  0.50000500000E+01  0.51100000000E-03 0. -1.
     100001    1    1    2    0    0  0.20385473741E-01 -0.47551854028E-02  0.78627712750E-02  0.50000500000E+01  0.50000000000E+01 0.  1.
     100001    1    1    2    0    0 -0.20385473741E-01  0.47551854028E-02 -0.78627712750E-02  0.50000500000E+01  0.50000000000E+01 0. -1.
</event>
<event>
 4    1  0.4897575E-001  0.5000050E+01  0.7818608E-02  0.2136455E+00
        -11   -1    0    0    0    0  0.00000000000E+00  0.00000000000E+00  0.50000499739E+01  0.50000500000E+01  0.51100000000E-03 0.  1.
         11   -1    0    0    0    0 -0.00000000000E+00 -0.00000000000E+00 -0.50000499739E+01  0.50000500000E+01  0.51100000000E-03 0. -1.
     100001    1    1    2    0    0  0.48193673730E-03 -0.14308833766E-01  0.17176364960E-01  0.50000500000E+01  0.50000000000E+01 0.  1.
     100001    1    1    2    0    0 -0.48193673730E-03  0.14308833766E-01 -0.17176364960E-01  0.50000500000E+01  0.50000000000E+01 0. -1.
</event>
<event>
 4    1  0.4897575E-001  0.5000050E+01  0.7818608E-02  0.2136455E+00
        -11   -1    0    0    0    0  0.00000000000E+00  0.00000000000E+00  0.50000499739E+01  0.50000500000E+01  0.51100000000E-03 0. -1.
         11   -1    0    0    0    0 -0.00000000000E+00 -0.00000000000E+00 -0.50000499739E+01  0.50000500000E+01  0.51100000000E-03 0.  1.
     100001    1    1    2    0    0 -0.13738312464E-01  0.89013885958E-02 -0.15232417789E-01  0.50000500000E+01  0.50000000000E+01 0.  1.
     100001    1    1    2    0    0  0.13738312464E-01 -0.89013885958E-02  0.15232417789E-01  0.50000500000E+01  0.50000000000E+01 0. -1.
</event>
<event>
 4    1  0.4897575E-001  0.5000050E+01  0.7818608E-02  0.2136455E+00
        -11   -1    0    0    0    0  0.00000000000E+00  0.00000000000E+00  0.50000499739E+01  0.50000500000E+01  0.51100000000E-03 0. -1.
         11   -1    0    0    0    0 -0.00000000000E+00 -0.00000000000E+00 -0.50000499739E+01  0.50000500000E+01  0.51100000000E-03 0.  1.
     100001    1    1    2    0    0  0.22247448027E-01 -0.10922071771E-02  0.19648510832E-02  0.50000500000E+01  0.50000000000E+01 0.  0.
     100001    1    1    2    0    0 -0.22247448027E-01  0.10922071771E-02 -0.19648510832E-02  0.50000500000E+01  0.50000000000E+01 0.  1.
</event>
<event>
 4    1  0.4897575E-001  0.5000050E+01  0.7818608E-02  0.2136455E+00
        -11   -1    0    0    0    0  0.00000000000E+00  0.00000000000E+00  0.50000499739E+01  0.50000500000E+01  0.51100000000E-03 0.  1.
         11   -1    0    0    0    0 -0.00000000000E+00 -0.00000000000E+00 -0.50000499739E+01  0.50000500000E+01  0.51100000000E-03 0. -1.
     100001    1    1    2    0    0  0.35319540087E-02 -0.22078527878E-01  0.25769675056E-03  0.50000500000E+01  0.50000000000E+01 0.  0.
     100001    1    1    2    0    0 -0.35319540087E-02  0.22078527878E-01 -0.25769675056E-03  0.50000500000E+01  0.50000000000E+01 0.  1.
</event>
<event>
 4    1  0.4897575E-001  0.5000050E+01  0.7818608E-02  0.2136455E+00
        -11   -1    0    0    0    0  0.00000000000E+00  0.00000000000E+00  0.50000499739E+01  0.50000500000E+01  0.51100000000E-03 0.  1.
         11   -1    0    0    0    0 -0.00000000000E+00 -0.00000000000E+00 -0.50000499739E+01  0.50000500000E+01  0.51100000000E-03 0. -1.
     100001    1    1    2    0    0  0.48223171144E-04  0.19115584820E-01 -0.11601490917E-01  0.50000500000E+01  0.50000000000E+01 0.  1.
     100001    1    1    2    0    0 -0.48223171144E-04 -0.19115584820E-01  0.11601490917E-01  0.50000500000E+01  0.50000000000E+01 0. -1.
</event>
<event>
 4    1  0.4897575E-001  0.5000050E+01  0.7818608E-02  0.2136455E+00
        -11   -1    0    0    0    0  0.00000000000E+00  0.00000000000E+00  0.50000499739E+01  0.50000500000E+01  0.51100000000E-03 0.  1.
         11   -1    0    0    0    0 -0.00000000000E+00 -0.00000000000E+00 -0.50000499739E+01  0.50000500000E+01  0.51100000000E-03 0. -1.
     100001    1    1    2    0    0  0.30867381656E-02  0.10006242718E-01 -0.19757268388E-01  0.50000500000E+01  0.50000000000E+01 0. -1.
     100001    1    1    2    0    0 -0.30867381656E-02 -0.10006242718E-01  0.19757268388E-01  0.50000500000E+01  0.50000000000E+01 0.  0.
</event>
<event>
 4    1  0.4897575E-001  0.5000050E+01  0.7818608E-02  0.2136455E+00
        -11   -1    0    0    0    0  0.00000000000E+00  0.00000000000E+00  0.50000499739E+01  0.50000500000E+01  0.51100000000E-03 0.  1.
         11   -1    0    0    0    0 -0.00000000000E+00 -0.00000000000E+00 -0.50000499739E+01  0.50000500000E+01  0.51100000000E-03 0. -1.
     100001    1    1    2    0    0  0.19155172919E-01  0.10819042918E-01 -0.40037683226E-02  0.50000500000E+01  0.50000000000E+01 0. -1.
     100001    1    1    2    0    0 -0.19155172919E-01 -0.10819042918E-01  0.40037683226E-02  0.50000500000E+01  0.50000000000E+01 0.  1.
</event>
<event>
 4    1  0.4897575E-001  0.5000050E+01  0.7818608E-02  0.2136455E+00
        -11   -1    0    0    0    0  0.00000000000E+00  0.00000000000E+00  0.50000499739E+01  0.50000500000E+01  0.51100000000E-03 0.  1.
         11   -1    0    0    0    0 -0.00000000000E+00 -0.00000000000E+00 -0.50000499739E+01  0.50000500000E+01  0.51100000000E-03 0. -1.
     100001    1    1    2    0    0  0.47142609218E-02 -0.15824123727E-01  0.15078970529E-01  0.50000500000E+01  0.50000000000E+01 0. -1.
     100001    1    1    2    0    0 -0.47142609218E-02  0.15824123727E-01 -0.15078970529E-01  0.50000500000E+01  0.50000000000E+01 0.  0.
</event>
<event>
 4    1  0.4897575E-001  0.5000050E+01  0.7818608E-02  0.2136455E+00
        -11   -1    0    0    0    0  0.00000000000E+00  0.00000000000E+00  0.50000499739E+01  0.50000500000E+01  0.51100000000E-03 0. -1.
         11   -1    0    0    0    0 -0.00000000000E+00 -0.00000000000E+00 -0.50000499739E+01  0.50000500000E+01  0.51100000000E-03 0.  1.
     100001    1    1    2    0    0 -0.91869756557E-02 -0.15971943082E-01  0.12668820486E-01  0.50000500000E+01  0.50000000000E+01 0.  1.
     100001    1    1    2    0    0  0.91869756557E-02  0.15971943082E-01 -0.12668820486E-01  0.50000500000E+01  0.50000000000E+01 0.  1.
</event>
<event>
 4    1  0.4897575E-001  0.5000050E+01  0.7818608E-02  0.2136455E+00
        -11   -1    0    0    0    0  0.00000000000E+00  0.00000000000E+00  0.50000499739E+01  0.50000500000E+01  0.51100000000E-03 0. -1.
         11   -1    0    0    0    0 -0.00000000000E+00 -0.00000000000E+00 -0.50000499739E+01  0.50000500000E+01  0.51100000000E-03 0.  1.
     100001    1    1    2    0    0 -0.13645588897E-01  0.12594088556E-01  0.12457501238E-01  0.50000500000E+01  0.50000000000E+01 0. -1.
     100001    1    1    2    0    0  0.13645588897E-01 -0.12594088556E-01 -0.12457501238E-01  0.50000500000E+01  0.50000000000E+01 0.  1.
</event>
<event>
 4    1  0.4897575E-001  0.5000050E+01  0.7818608E-02  0.2136455E+00
        -11   -1    0    0    0    0  0.00000000000E+00  0.00000000000E+00  0.50000499739E+01  0.50000500000E+01  0.51100000000E-03 0.  1.
         11   -1    0    0    0    0 -0.00000000000E+00 -0.00000000000E+00 -0.50000499739E+01  0.50000500000E+01  0.51100000000E-03 0. -1.
     100001    1    1    2    0    0 -0.11870662714E-01  0.12604461275E-01 -0.14149820589E-01  0.50000500000E+01  0.50000000000E+01 0. -1.
     100001    1    1    2    0    0  0.11870662714E-01 -0.12604461275E-01  0.14149820589E-01  0.50000500000E+01  0.50000000000E+01 0.  1.
</event>
<event>
 4    1  0.4897575E-001  0.5000050E+01  0.7818608E-02  0.2136455E+00
        -11   -1    0    0    0    0  0.00000000000E+00  0.00000000000E+00  0.50000499739E+01  0.50000500000E+01  0.51100000000E-03 0. -1.
         11   -1    0    0    0    0 -0.00000000000E+00 -0.00000000000E+00 -0.50000499739E+01  0.50000500000E+01  0.51100000000E-03 0.  1.
     100001    1    1    2    0    0  0.18464414641E-01 -0.81239314898E-02  0.96472601865E-02  0.50000500000E+01  0.50000000000E+01 0.  0.
     100001    1    1    2    0    0 -0.18464414641E-01  0.81239314898E-02 -0.96472601865E-02  0.50000500000E+01  0.50000000000E+01 0. -1.
</event>
<event>
 4    1  0.4897575E-001  0.5000050E+01  0.7818608E-02  0.2136455E+00
        -11   -1    0    0    0    0  0.00000000000E+00  0.00000000000E+00  0.50000499739E+01  0.50000500000E+01  0.51100000000E-03 0. -1.
         11   -1    0    0    0    0 -0.00000000000E+00 -0.00000000000E+00 -0.50000499739E+01  0.50000500000E+01  0.51100000000E-03 0.  1.
     100001    1    1    2    0    0  0.14263884875E-01  0.10534182630E-01  0.13622594635E-01  0.50000500000E+01  0.50000000000E+01 0. -1.
     100001    1    1    2    0    0 -0.14263884875E-01 -0.10534182630E-01 -0.13622594635E-01  0.50000500000E+01  0.50000000000E+01 0.  1.
</event>
<event>
 4    1  0.4897575E-001  0.5000050E+01  0.7818608E-02  0.2136455E+00
        -11   -1    0    0    0    0  0.00000000000E+00  0.00000000000E+00  0.50000499739E+01  0.50000500000E+01  0.51100000000E-03 0. -1.
         11   -1    0    0    0    0 -0.00000000000E+00 -0.00000000000E+00 -0.50000499739E+01  0.50000500000E+01  0.51100000000E-03 0.  1.
     100001    1    1    2    0    0  0.22254747686E-01 -0.89292054193E-03 -0.19827754074E-02  0.50000500000E+01  0.50000000000E+01 0.  0.
     100001    1    1    2    0    0 -0.22254747686E-01  0.89292054193E-03  0.19827754074E-02  0.50000500000E+01  0.50000000000E+01 0. -1.
</event>
<event>
 4    1  0.4897575E-001  0.5000050E+01  0.7818608E-02  0.2136455E+00
        -11   -1    0    0    0    0  0.00000000000E+00  0.00000000000E+00  0.50000499739E+01  0.50000500000E+01  0.51100000000E-03 0. -1.
         11   -1    0    0    0    0 -0.00000000000E+00 -0.00000000000E+00 -0.50000499739E+01  0.50000500000E+01  0.51100000000E-03 0.  1.
     100001    1    1    2    0    0  0.85297554013E-02 -0.20650538559E-01 -0.89500280390E-03  0.50000500000E+01  0.50000000000E+01 0.  0.
     100001    1    1    2    0    0 -0.85297554013E-02  0.20650538559E-01  0.89500280390E-03  0.50000500000E+01  0.50000000000E+01 0. -1.
</event>
<event>
 4    1  0.4897575E-001  0.5000050E+01  0.7818608E-02  0.2136455E+00
        -11   -1    0    0    0    0  0.00000000000E+00  0.00000000000E+00  0.50000499739E+01  0.50000500000E+01  0.51100000000E-03 0. -1.
         11   -1    0    0    0    0 -0.00000000000E+00 -0.00000000000E+00 -0.50000499739E+01  0.50000500000E+01  0.51100000000E-03 0.  1.
     100001    1    1    2    0    0 -0.78854680296E-02 -0.20810610509E-01  0.21772423328E-02  0.50000500000E+01  0.50000000000E+01 0.  1.
     100001    1    1    2    0    0  0.78854680296E-02  0.20810610509E-01 -0.21772423328E-02  0.50000500000E+01  0.50000000000E+01 0.  0.
</event>
<event>
 4    1  0.4897575E-001  0.5000050E+01  0.7818608E-02  0.2136455E+00
        -11   -1    0    0    0    0  0.00000000000E+00  0.00000000000E+00  0.50000499739E+01  0.50000500000E+01  0.51100000000E-03 0. -1.
         11   -1    0    0    0    0 -0.00000000000E+00 -0.00000000000E+00 -0.50000499739E+01  0.50000500000E+01  0.51100000000E-03 0.  1.
     100001    1    1    2    0    0  0.13606128421E-01 -0.16123189410E-01  0.74107039237E-02  0.50000500000E+01  0.50000000000E+01 0.  1.
     100001    1    1    2    0    0 -0.13606128421E-01  0.16123189410E-01 -0.74107039237E-02  0.50000500000E+01  0.50000000000E+01 0.  0.
</event>
<event>
 4    1  0.4897575E-001  0.5000050E+01  0.7818608E-02  0.2136455E+00
        -11   -1    0    0    0    0  0.00000000000E+00  0.00000000000E+00  0.50000499739E+01  0.50000500000E+01  0.51100000000E-03 0.  1.
         11   -1    0    0    0    0 -0.00000000000E+00 -0.00000000000E+00 -0.50000499739E+01  0.50000500000E+01  0.51100000000E-03 0. -1.
     100001    1    1    2    0    0 -0.73953826404E-02 -0.19481455436E-01 -0.81107157314E-02  0.50000500000E+01  0.50000000000E+01 0. -1.
     100001    1    1    2    0    0  0.73953826404E-02  0.19481455436E-01  0.81107157314E-02  0.50000500000E+01  0.50000000000E+01 0.  1.
</event>
<event>
 4    1  0.4897575E-001  0.5000050E+01  0.7818608E-02  0.2136455E+00
        -11   -1    0    0    0    0  0.00000000000E+00  0.00000000000E+00  0.50000499739E+01  0.50000500000E+01  0.51100000000E-03 0. -1.
         11   -1    0    0    0    0 -0.00000000000E+00 -0.00000000000E+00 -0.50000499739E+01  0.50000500000E+01  0.51100000000E-03 0.  1.
     100001    1    1    2    0    0 -0.14866119849E-01 -0.16376595513E-01  0.32875674999E-02  0.50000500000E+01  0.50000000000E+01 0. -1.
     100001    1    1    2    0    0  0.14866119849E-01  0.16376595513E-01 -0.32875674999E-02  0.50000500000E+01  0.50000000000E+01 0.  1.
</event>
<event>
 4    1  0.4897575E-001  0.5000050E+01  0.7818608E-02  0.2136455E+00
        -11   -1    0    0    0    0  0.00000000000E+00  0.00000000000E+00  0.50000499739E+01  0.50000500000E+01  0.51100000000E-03 0.  1.
         11   -1    0    0    0    0 -0.00000000000E+00 -0.00000000000E+00 -0.50000499739E+01  0.50000500000E+01  0.51100000000E-03 0. -1.
     100001    1    1    2    0    0  0.20689649886E-01  0.56275742301E-02 -0.63459668982E-02  0.50000500000E+01  0.50000000000E+01 0.  1.
     100001    1    1    2    0    0 -0.20689649886E-01 -0.56275742301E-02  0.63459668982E-02  0.50000500000E+01  0.50000000000E+01 0.  0.
</event>
<event>
 4    1  0.4897575E-001  0.5000050E+01  0.7818608E-02  0.2136455E+00
        -11   -1    0    0    0    0  0.00000000000E+00  0.00000000000E+00  0.50000499739E+01  0.50000500000E+01  0.51100000000E-03 0.  1.
         11   -1    0    0    0    0 -0.00000000000E+00 -0.00000000000E+00 -0.50000499739E+01  0.50000500000E+01  0.51100000000E-03 0. -1.
     100001    1    1    2    0    0 -0.64915684452E-02 -0.20444711918E-01 -0.63147283176E-02  0.50000500000E+01  0.50000000000E+01 0. -1.
     100001    1    1    2    0    0  0.64915684452E-02  0.20444711918E-01  0.63147283176E-02  0.50000500000E+01  0.50000000000E+01 0.  1.
</event>
<event>
 4    1  0.4897575E-001  0.5000050E+01  0.7818608E-02  0.2136455E+00
        -11   -1    0    0    0    0  0.00000000000E+00  0.00000000000E+00  0.50000499739E+01  0.50000500000E+01  0.51100000000E-03 0.  1.
         11   -1    0    0    0    0 -0.00000000000E+00 -0.00000000000E+00 -0.50000499739E+01  0.50000500000E+01  0.51100000000E-03 0. -1.
     100001    1    1    2    0    0 -0.59199414816E-02 -0.21383155961E-01  0.27780269958E-02  0.50000500000E+01  0.50000000000E+01 0.  1.
     100001    1    1    2    0    0  0.59199414816E-02  0.21383155961E-01 -0.27780269958E-02  0.50000500000E+01  0.50000000000E+01 0. -1.
</event>
<event>
 4    1  0.4897575E-001  0.5000050E+01  0.7818608E-02  0.2136455E+00
        -11   -1    0    0    0    0  0.00000000000E+00  0.00000000000E+00  0.50000499739E+01  0.50000500000E+01  0.51100000000E-03 0.  1.
         11   -1    0    0    0    0 -0.00000000000E+00 -0.00000000000E+00 -0.50000499739E+01  0.50000500000E+01  0.51100000000E-03 0. -1.
     100001    1    1    2    0    0  0.11651713703E-01 -0.79606883461E-02  0.17345532820E-01  0.50000500000E+01  0.50000000000E+01 0.  1.
     100001    1    1    2    0    0 -0.11651713703E-01  0.79606883461E-02 -0.17345532820E-01  0.50000500000E+01  0.50000000000E+01 0. -1.
</event>
<event>
 4    1  0.4897575E-001  0.5000050E+01  0.7818608E-02  0.2136455E+00
        -11   -1    0    0    0    0  0.00000000000E+00  0.00000000000E+00  0.50000499739E+01  0.50000500000E+01  0.51100000000E-03 0.  1.
         11   -1    0    0    0    0 -0.00000000000E+00 -0.00000000000E+00 -0.50000499739E+01  0.50000500000E+01  0.51100000000E-03 0. -1.
     100001    1    1    2    0    0  0.13593718064E-01  0.39695375498E-02  0.17304799937E-01  0.50000500000E+01  0.50000000000E+01 0.  0.
     100001    1    1    2    0    0 -0.13593718064E-01 -0.39695375498E-02 -0.17304799937E-01  0.50000500000E+01  0.50000000000E+01 0. -1.
</event>
<event>
 4    1  0.4897575E-001  0.5000050E+01  0.7818608E-02  0.2136455E+00
        -11   -1    0    0    0    0  0.00000000000E+00  0.00000000000E+00  0.50000499739E+01  0.50000500000E+01  0.51100000000E-03 0. -1.
         11   -1    0    0    0    0 -0.00000000000E+00 -0.00000000000E+00 -0.50000499739E+01  0.50000500000E+01  0.51100000000E-03 0.  1.
     100001    1    1    2    0    0 -0.17824984537E-01  0.23410432988E-02  0.13296313118E-01  0.50000500000E+01  0.50000000000E+01 0.  1.
     100001    1    1    2    0    0  0.17824984537E-01 -0.23410432988E-02 -0.13296313118E-01  0.50000500000E+01  0.50000000000E+01 0.  0.
</event>
<event>
 4    1  0.4897575E-001  0.5000050E+01  0.7818608E-02  0.2136455E+00
        -11   -1    0    0    0    0  0.00000000000E+00  0.00000000000E+00  0.50000499739E+01  0.50000500000E+01  0.51100000000E-03 0.  1.
         11   -1    0    0    0    0 -0.00000000000E+00 -0.00000000000E+00 -0.50000499739E+01  0.50000500000E+01  0.51100000000E-03 0. -1.
     100001    1    1    2    0    0  0.17080075633E-01 -0.13962303848E-01 -0.36506968681E-02  0.50000500000E+01  0.50000000000E+01 0.  1.
     100001    1    1    2    0    0 -0.17080075633E-01  0.13962303848E-01  0.36506968681E-02  0.50000500000E+01  0.50000000000E+01 0.  0.
</event>
<event>
 4    1  0.4897575E-001  0.5000050E+01  0.7818608E-02  0.2136455E+00
        -11   -1    0    0    0    0  0.00000000000E+00  0.00000000000E+00  0.50000499739E+01  0.50000500000E+01  0.51100000000E-03 0.  1.
         11   -1    0    0    0    0 -0.00000000000E+00 -0.00000000000E+00 -0.50000499739E+01  0.50000500000E+01  0.51100000000E-03 0. -1.
     100001    1    1    2    0    0  0.13836728167E-01 -0.64738357502E-02 -0.16329020310E-01  0.50000500000E+01  0.50000000000E+01 0. -1.
     100001    1    1    2    0    0 -0.13836728167E-01  0.64738357502E-02  0.16329020310E-01  0.50000500000E+01  0.50000000000E+01 0.  1.
</event>
<event>
 4    1  0.4897575E-001  0.5000050E+01  0.7818608E-02  0.2136455E+00
        -11   -1    0    0    0    0  0.00000000000E+00  0.00000000000E+00  0.50000499739E+01  0.50000500000E+01  0.51100000000E-03 0. -1.
         11   -1    0    0    0    0 -0.00000000000E+00 -0.00000000000E+00 -0.50000499739E+01  0.50000500000E+01  0.51100000000E-03 0.  1.
     100001    1    1    2    0    0  0.18483985990E-02  0.15378769079E-01 -0.16126976910E-01  0.50000500000E+01  0.50000000000E+01 0.  1.
     100001    1    1    2    0    0 -0.18483985990E-02 -0.15378769079E-01  0.16126976910E-01  0.50000500000E+01  0.50000000000E+01 0. -1.
</event>
<event>
 4    1  0.4897575E-001  0.5000050E+01  0.7818608E-02  0.2136455E+00
        -11   -1    0    0    0    0  0.00000000000E+00  0.00000000000E+00  0.50000499739E+01  0.50000500000E+01  0.51100000000E-03 0. -1.
         11   -1    0    0    0    0 -0.00000000000E+00 -0.00000000000E+00 -0.50000499739E+01  0.50000500000E+01  0.51100000000E-03 0.  1.
     100001    1    1    2    0    0  0.24549890232E-02 -0.27247559636E-02  0.22057906379E-01  0.50000500000E+01  0.50000000000E+01 0.  0.
     100001    1    1    2    0    0 -0.24549890232E-02  0.27247559636E-02 -0.22057906379E-01  0.50000500000E+01  0.50000000000E+01 0.  1.
</event>
<event>
 4    1  0.4897575E-001  0.5000050E+01  0.7818608E-02  0.2136455E+00
        -11   -1    0    0    0    0  0.00000000000E+00  0.00000000000E+00  0.50000499739E+01  0.50000500000E+01  0.51100000000E-03 0. -1.
         11   -1    0    0    0    0 -0.00000000000E+00 -0.00000000000E+00 -0.50000499739E+01  0.50000500000E+01  0.51100000000E-03 0.  1.
     100001    1    1    2    0    0 -0.19188419123E-01 -0.10898418548E-01  0.36099230893E-02  0.50000500000E+01  0.50000000000E+01 0.  1.
     100001    1    1    2    0    0  0.19188419123E-01  0.10898418548E-01 -0.36099230893E-02  0.50000500000E+01  0.50000000000E+01 0.  0.
</event>
<event>
 4    1  0.4897575E-001  0.5000050E+01  0.7818608E-02  0.2136455E+00
        -11   -1    0    0    0    0  0.00000000000E+00  0.00000000000E+00  0.50000499739E+01  0.50000500000E+01  0.51100000000E-03 0. -1.
         11   -1    0    0    0    0 -0.00000000000E+00 -0.00000000000E+00 -0.50000499739E+01  0.50000500000E+01  0.51100000000E-03 0.  1.
     100001    1    1    2    0    0  0.17983609738E-01  0.70560652012E-02 -0.11260738194E-01  0.50000500000E+01  0.50000000000E+01 0. -1.
     100001    1    1    2    0    0 -0.17983609738E-01 -0.70560652012E-02  0.11260738194E-01  0.50000500000E+01  0.50000000000E+01 0.  0.
</event>
<event>
 4    1  0.4897575E-001  0.5000050E+01  0.7818608E-02  0.2136455E+00
        -11   -1    0    0    0    0  0.00000000000E+00  0.00000000000E+00  0.50000499739E+01  0.50000500000E+01  0.51100000000E-03 0.  1.
         11   -1    0    0    0    0 -0.00000000000E+00 -0.00000000000E+00 -0.50000499739E+01  0.50000500000E+01  0.51100000000E-03 0. -1.
     100001    1    1    2    0    0 -0.74260378491E-03 -0.12956695622E-01 -0.18209203118E-01  0.50000500000E+01  0.50000000000E+01 0.  0.
     100001    1    1    2    0    0  0.74260378491E-03  0.12956695622E-01  0.18209203118E-01  0.50000500000E+01  0.50000000000E+01 0.  0.
</event>
<event>
 4    1  0.4897575E-001  0.5000050E+01  0.7818608E-02  0.2136455E+00
        -11   -1    0    0    0    0  0.00000000000E+00  0.00000000000E+00  0.50000499739E+01  0.50000500000E+01  0.51100000000E-03 0. -1.
         11   -1    0    0    0    0 -0.00000000000E+00 -0.00000000000E+00 -0.50000499739E+01  0.50000500000E+01  0.51100000000E-03 0.  1.
     100001    1    1    2    0    0 -0.20662888155E-01 -0.84133344871E-02  0.15044453841E-02  0.50000500000E+01  0.50000000000E+01 0.  0.
     100001    1    1    2    0    0  0.20662888155E-01  0.84133344871E-02 -0.15044453841E-02  0.50000500000E+01  0.50000000000E+01 0.  1.
</event>
<event>
 4    1  0.4897575E-001  0.5000050E+01  0.7818608E-02  0.2136455E+00
        -11   -1    0    0    0    0  0.00000000000E+00  0.00000000000E+00  0.50000499739E+01  0.50000500000E+01  0.51100000000E-03 0. -1.
         11   -1    0    0    0    0 -0.00000000000E+00 -0.00000000000E+00 -0.50000499739E+01  0.50000500000E+01  0.51100000000E-03 0.  1.
     100001    1    1    2    0    0 -0.94956395399E-02 -0.55278574179E-02  0.19475064110E-01  0.50000500000E+01  0.50000000000E+01 0. -1.
     100001    1    1    2    0    0  0.94956395399E-02  0.55278574179E-02 -0.19475064110E-01  0.50000500000E+01  0.50000000000E+01 0.  1.
</event>
<event>
 4    1  0.4897575E-001  0.5000050E+01  0.7818608E-02  0.2136455E+00
        -11   -1    0    0    0    0  0.00000000000E+00  0.00000000000E+00  0.50000499739E+01  0.50000500000E+01  0.51100000000E-03 0. -1.
         11   -1    0    0    0    0 -0.00000000000E+00 -0.00000000000E+00 -0.50000499739E+01  0.50000500000E+01  0.51100000000E-03 0.  1.
     100001    1    1    2    0    0 -0.15155974372E-01 -0.79241599028E-02  0.14405090443E-01  0.50000500000E+01  0.50000000000E+01 0.  1.
     100001    1    1    2    0    0  0.15155974372E-01  0.79241599028E-02 -0.14405090443E-01  0.50000500000E+01  0.50000000000E+01 0.  0.
</event>
<event>
 4    1  0.4897575E-001  0.5000050E+01  0.7818608E-02  0.2136455E+00
        -11   -1    0    0    0    0  0.00000000000E+00  0.00000000000E+00  0.50000499739E+01  0.50000500000E+01  0.51100000000E-03 0. -1.
         11   -1    0    0    0    0 -0.00000000000E+00 -0.00000000000E+00 -0.50000499739E+01  0.50000500000E+01  0.51100000000E-03 0.  1.
     100001    1    1    2    0    0 -0.68112820704E-02 -0.34277838854E-03  0.21295338446E-01  0.50000500000E+01  0.50000000000E+01 0. -1.
     100001    1    1    2    0    0  0.68112820704E-02  0.34277838854E-03 -0.21295338446E-01  0.50000500000E+01  0.50000000000E+01 0.  0.
</event>
<event>
 4    1  0.4897575E-001  0.5000050E+01  0.7818608E-02  0.2136455E+00
        -11   -1    0    0    0    0  0.00000000000E+00  0.00000000000E+00  0.50000499739E+01  0.50000500000E+01  0.51100000000E-03 0.  1.
         11   -1    0    0    0    0 -0.00000000000E+00 -0.00000000000E+00 -0.50000499739E+01  0.50000500000E+01  0.51100000000E-03 0. -1.
     100001    1    1    2    0    0 -0.22106061652E-01  0.32060715832E-02 -0.10225669914E-02  0.50000500000E+01  0.50000000000E+01 0. -1.
     100001    1    1    2    0    0  0.22106061652E-01 -0.32060715832E-02  0.10225669914E-02  0.50000500000E+01  0.50000000000E+01 0.  0.
</event>
<event>
 4    1  0.4897575E-001  0.5000050E+01  0.7818608E-02  0.2136455E+00
        -11   -1    0    0    0    0  0.00000000000E+00  0.00000000000E+00  0.50000499739E+01  0.50000500000E+01  0.51100000000E-03 0.  1.
         11   -1    0    0    0    0 -0.00000000000E+00 -0.00000000000E+00 -0.50000499739E+01  0.50000500000E+01  0.51100000000E-03 0. -1.
     100001    1    1    2    0    0 -0.64283127594E-02  0.21402766496E-01  0.77516540181E-03  0.50000500000E+01  0.50000000000E+01 0.  1.
     100001    1    1    2    0    0  0.64283127594E-02 -0.21402766496E-01 -0.77516540181E-03  0.50000500000E+01  0.50000000000E+01 0. -1.
</event>
<event>
 4    1  0.4897575E-001  0.5000050E+01  0.7818608E-02  0.2136455E+00
        -11   -1    0    0    0    0  0.00000000000E+00  0.00000000000E+00  0.50000499739E+01  0.50000500000E+01  0.51100000000E-03 0.  1.
         11   -1    0    0    0    0 -0.00000000000E+00 -0.00000000000E+00 -0.50000499739E+01  0.50000500000E+01  0.51100000000E-03 0. -1.
     100001    1    1    2    0    0 -0.16707695379E-01 -0.14407714878E-01  0.36432358041E-02  0.50000500000E+01  0.50000000000E+01 0. -1.
     100001    1    1    2    0    0  0.16707695379E-01  0.14407714878E-01 -0.36432358041E-02  0.50000500000E+01  0.50000000000E+01 0.  1.
</event>
<event>
 4    1  0.4897575E-001  0.5000050E+01  0.7818608E-02  0.2136455E+00
        -11   -1    0    0    0    0  0.00000000000E+00  0.00000000000E+00  0.50000499739E+01  0.50000500000E+01  0.51100000000E-03 0.  1.
         11   -1    0    0    0    0 -0.00000000000E+00 -0.00000000000E+00 -0.50000499739E+01  0.50000500000E+01  0.51100000000E-03 0. -1.
     100001    1    1    2    0    0  0.20701751338E-01  0.27551205171E-02 -0.79905758538E-02  0.50000500000E+01  0.50000000000E+01 0.  0.
     100001    1    1    2    0    0 -0.20701751338E-01 -0.27551205171E-02  0.79905758538E-02  0.50000500000E+01  0.50000000000E+01 0.  0.
</event>
<event>
 4    1  0.4897575E-001  0.5000050E+01  0.7818608E-02  0.2136455E+00
        -11   -1    0    0    0    0  0.00000000000E+00  0.00000000000E+00  0.50000499739E+01  0.50000500000E+01  0.51100000000E-03 0. -1.
         11   -1    0    0    0    0 -0.00000000000E+00 -0.00000000000E+00 -0.50000499739E+01  0.50000500000E+01  0.51100000000E-03 0.  1.
     100001    1    1    2    0    0 -0.15771813296E-02  0.75606868063E-02 -0.20984542265E-01  0.50000500000E+01  0.50000000000E+01 0.  0.
     100001    1    1    2    0    0  0.15771813296E-02 -0.75606868063E-02  0.20984542265E-01  0.50000500000E+01  0.50000000000E+01 0. -1.
</event>
<event>
 4    1  0.4897575E-001  0.5000050E+01  0.7818608E-02  0.2136455E+00
        -11   -1    0    0    0    0  0.00000000000E+00  0.00000000000E+00  0.50000499739E+01  0.50000500000E+01  0.51100000000E-03 0.  1.
         11   -1    0    0    0    0 -0.00000000000E+00 -0.00000000000E+00 -0.50000499739E+01  0.50000500000E+01  0.51100000000E-03 0. -1.
     100001    1    1    2    0    0 -0.96293228333E-02  0.52674518865E-02  0.19481596249E-01  0.50000500000E+01  0.50000000000E+01 0.  0.
     100001    1    1    2    0    0  0.96293228333E-02 -0.52674518865E-02 -0.19481596249E-01  0.50000500000E+01  0.50000000000E+01 0.  0.
</event>
<event>
 4    1  0.4897575E-001  0.5000050E+01  0.7818608E-02  0.2136455E+00
        -11   -1    0    0    0    0  0.00000000000E+00  0.00000000000E+00  0.50000499739E+01  0.50000500000E+01  0.51100000000E-03 0.  1.
         11   -1    0    0    0    0 -0.00000000000E+00 -0.00000000000E+00 -0.50000499739E+01  0.50000500000E+01  0.51100000000E-03 0. -1.
     100001    1    1    2    0    0 -0.44644333341E-02  0.11926285833E-01  0.18380289476E-01  0.50000500000E+01  0.50000000000E+01 0.  1.
     100001    1    1    2    0    0  0.44644333341E-02 -0.11926285833E-01 -0.18380289476E-01  0.50000500000E+01  0.50000000000E+01 0. -1.
</event>
<event>
 4    1  0.4897575E-001  0.5000050E+01  0.7818608E-02  0.2136455E+00
        -11   -1    0    0    0    0  0.00000000000E+00  0.00000000000E+00  0.50000499739E+01  0.50000500000E+01  0.51100000000E-03 0.  1.
         11   -1    0    0    0    0 -0.00000000000E+00 -0.00000000000E+00 -0.50000499739E+01  0.50000500000E+01  0.51100000000E-03 0. -1.
     100001    1    1    2    0    0  0.62372570130E-02 -0.18934950333E-01  0.10127525899E-01  0.50000500000E+01  0.50000000000E+01 0.  0.
     100001    1    1    2    0    0 -0.62372570130E-02  0.18934950333E-01 -0.10127525899E-01  0.50000500000E+01  0.50000000000E+01 0.  0.
</event>
<event>
 4    1  0.4897575E-001  0.5000050E+01  0.7818608E-02  0.2136455E+00
        -11   -1    0    0    0    0  0.00000000000E+00  0.00000000000E+00  0.50000499739E+01  0.50000500000E+01  0.51100000000E-03 0.  1.
         11   -1    0    0    0    0 -0.00000000000E+00 -0.00000000000E+00 -0.50000499739E+01  0.50000500000E+01  0.51100000000E-03 0. -1.
     100001    1    1    2    0    0  0.12130032193E-01  0.11839973394E-01 -0.14583547203E-01  0.50000500000E+01  0.50000000000E+01 0.  1.
     100001    1    1    2    0    0 -0.12130032193E-01 -0.11839973394E-01  0.14583547203E-01  0.50000500000E+01  0.50000000000E+01 0.  1.
</event>
<event>
 4    1  0.4897575E-001  0.5000050E+01  0.7818608E-02  0.2136455E+00
        -11   -1    0    0    0    0  0.00000000000E+00  0.00000000000E+00  0.50000499739E+01  0.50000500000E+01  0.51100000000E-03 0. -1.
         11   -1    0    0    0    0 -0.00000000000E+00 -0.00000000000E+00 -0.50000499739E+01  0.50000500000E+01  0.51100000000E-03 0.  1.
     100001    1    1    2    0    0  0.13619041317E-02 -0.18170089454E-01  0.12961310365E-01  0.50000500000E+01  0.50000000000E+01 0.  1.
     100001    1    1    2    0    0 -0.13619041317E-02  0.18170089454E-01 -0.12961310365E-01  0.50000500000E+01  0.50000000000E+01 0.  0.
</event>
<event>
 4    1  0.4897575E-001  0.5000050E+01  0.7818608E-02  0.2136455E+00
        -11   -1    0    0    0    0  0.00000000000E+00  0.00000000000E+00  0.50000499739E+01  0.50000500000E+01  0.51100000000E-03 0. -1.
         11   -1    0    0    0    0 -0.00000000000E+00 -0.00000000000E+00 -0.50000499739E+01  0.50000500000E+01  0.51100000000E-03 0.  1.
     100001    1    1    2    0    0  0.55460809462E-02  0.20024775742E-01  0.82614673397E-02  0.50000500000E+01  0.50000000000E+01 0. -1.
     100001    1    1    2    0    0 -0.55460809462E-02 -0.20024775742E-01 -0.82614673397E-02  0.50000500000E+01  0.50000000000E+01 0.  1.
</event>
<event>
 4    1  0.4897575E-001  0.5000050E+01  0.7818608E-02  0.2136455E+00
        -11   -1    0    0    0    0  0.00000000000E+00  0.00000000000E+00  0.50000499739E+01  0.50000500000E+01  0.51100000000E-03 0.  1.
         11   -1    0    0    0    0 -0.00000000000E+00 -0.00000000000E+00 -0.50000499739E+01  0.50000500000E+01  0.51100000000E-03 0. -1.
     100001    1    1    2    0    0 -0.54126036390E-02 -0.21148394184E-01  0.48426898824E-02  0.50000500000E+01  0.50000000000E+01 0. -1.
     100001    1    1    2    0    0  0.54126036390E-02  0.21148394184E-01 -0.48426898824E-02  0.50000500000E+01  0.50000000000E+01 0.  1.
</event>
<event>
 4    1  0.4897575E-001  0.5000050E+01  0.7818608E-02  0.2136455E+00
        -11   -1    0    0    0    0  0.00000000000E+00  0.00000000000E+00  0.50000499739E+01  0.50000500000E+01  0.51100000000E-03 0. -1.
         11   -1    0    0    0    0 -0.00000000000E+00 -0.00000000000E+00 -0.50000499739E+01  0.50000500000E+01  0.51100000000E-03 0.  1.
     100001    1    1    2    0    0  0.38432256506E-03  0.14823721915E-01  0.16736548771E-01  0.50000500000E+01  0.50000000000E+01 0. -1.
     100001    1    1    2    0    0 -0.38432256506E-03 -0.14823721915E-01 -0.16736548771E-01  0.50000500000E+01  0.50000000000E+01 0.  1.
</event>
<event>
 4    1  0.4897575E-001  0.5000050E+01  0.7818608E-02  0.2136455E+00
        -11   -1    0    0    0    0  0.00000000000E+00  0.00000000000E+00  0.50000499739E+01  0.50000500000E+01  0.51100000000E-03 0. -1.
         11   -1    0    0    0    0 -0.00000000000E+00 -0.00000000000E+00 -0.50000499739E+01  0.50000500000E+01  0.51100000000E-03 0.  1.
     100001    1    1    2    0    0  0.20383171850E-01 -0.64873944708E-02 -0.65147922697E-02  0.50000500000E+01  0.50000000000E+01 0. -1.
     100001    1    1    2    0    0 -0.20383171850E-01  0.64873944708E-02  0.65147922697E-02  0.50000500000E+01  0.50000000000E+01 0.  0.
</event>
<event>
 4    1  0.4897575E-001  0.5000050E+01  0.7818608E-02  0.2136455E+00
        -11   -1    0    0    0    0  0.00000000000E+00  0.00000000000E+00  0.50000499739E+01  0.50000500000E+01  0.51100000000E-03 0. -1.
         11   -1    0    0    0    0 -0.00000000000E+00 -0.00000000000E+00 -0.50000499739E+01  0.50000500000E+01  0.51100000000E-03 0.  1.
     100001    1    1    2    0    0  0.21190804310E-01  0.68364787101E-02  0.20530152292E-02  0.50000500000E+01  0.50000000000E+01 0.  1.
     100001    1    1    2    0    0 -0.21190804310E-01 -0.68364787101E-02 -0.20530152292E-02  0.50000500000E+01  0.50000000000E+01 0. -1.
</event>
<event>
 4    1  0.4897575E-001  0.5000050E+01  0.7818608E-02  0.2136455E+00
        -11   -1    0    0    0    0  0.00000000000E+00  0.00000000000E+00  0.50000499739E+01  0.50000500000E+01  0.51100000000E-03 0. -1.
         11   -1    0    0    0    0 -0.00000000000E+00 -0.00000000000E+00 -0.50000499739E+01  0.50000500000E+01  0.51100000000E-03 0.  1.
     100001    1    1    2    0    0 -0.99739276780E-02  0.72817018615E-02 -0.18641354153E-01  0.50000500000E+01  0.50000000000E+01 0.  1.
     100001    1    1    2    0    0  0.99739276780E-02 -0.72817018615E-02  0.18641354153E-01  0.50000500000E+01  0.50000000000E+01 0.  0.
</event>
<event>
 4    1  0.4897575E-001  0.5000050E+01  0.7818608E-02  0.2136455E+00
        -11   -1    0    0    0    0  0.00000000000E+00  0.00000000000E+00  0.50000499739E+01  0.50000500000E+01  0.51100000000E-03 0. -1.
         11   -1    0    0    0    0 -0.00000000000E+00 -0.00000000000E+00 -0.50000499739E+01  0.50000500000E+01  0.51100000000E-03 0.  1.
     100001    1    1    2    0    0  0.11031072454E-01  0.17633899529E-03  0.19449597555E-01  0.50000500000E+01  0.50000000000E+01 0.  0.
     100001    1    1    2    0    0 -0.11031072454E-01 -0.17633899529E-03 -0.19449597555E-01  0.50000500000E+01  0.50000000000E+01 0.  1.
</event>
<event>
 4    1  0.4897575E-001  0.5000050E+01  0.7818608E-02  0.2136455E+00
        -11   -1    0    0    0    0  0.00000000000E+00  0.00000000000E+00  0.50000499739E+01  0.50000500000E+01  0.51100000000E-03 0.  1.
         11   -1    0    0    0    0 -0.00000000000E+00 -0.00000000000E+00 -0.50000499739E+01  0.50000500000E+01  0.51100000000E-03 0. -1.
     100001    1    1    2    0    0 -0.12220081184E-01  0.18713162230E-01  0.69976796642E-03  0.50000500000E+01  0.50000000000E+01 0.  0.
     100001    1    1    2    0    0  0.12220081184E-01 -0.18713162230E-01 -0.69976796642E-03  0.50000500000E+01  0.50000000000E+01 0. -1.
</event>
<event>
 4    1  0.4897575E-001  0.5000050E+01  0.7818608E-02  0.2136455E+00
        -11   -1    0    0    0    0  0.00000000000E+00  0.00000000000E+00  0.50000499739E+01  0.50000500000E+01  0.51100000000E-03 0.  1.
         11   -1    0    0    0    0 -0.00000000000E+00 -0.00000000000E+00 -0.50000499739E+01  0.50000500000E+01  0.51100000000E-03 0. -1.
     100001    1    1    2    0    0 -0.10000684103E-02  0.62826278908E-02 -0.21436673015E-01  0.50000500000E+01  0.50000000000E+01 0. -1.
     100001    1    1    2    0    0  0.10000684103E-02 -0.62826278908E-02  0.21436673015E-01  0.50000500000E+01  0.50000000000E+01 0.  0.
</event>
<event>
 4    1  0.4897575E-001  0.5000050E+01  0.7818608E-02  0.2136455E+00
        -11   -1    0    0    0    0  0.00000000000E+00  0.00000000000E+00  0.50000499739E+01  0.50000500000E+01  0.51100000000E-03 0.  1.
         11   -1    0    0    0    0 -0.00000000000E+00 -0.00000000000E+00 -0.50000499739E+01  0.50000500000E+01  0.51100000000E-03 0. -1.
     100001    1    1    2    0    0 -0.16406901241E-01 -0.14032677487E-01  0.58223753070E-02  0.50000500000E+01  0.50000000000E+01 0.  1.
     100001    1    1    2    0    0  0.16406901241E-01  0.14032677487E-01 -0.58223753070E-02  0.50000500000E+01  0.50000000000E+01 0. -1.
</event>
<event>
 4    1  0.4897575E-001  0.5000050E+01  0.7818608E-02  0.2136455E+00
        -11   -1    0    0    0    0  0.00000000000E+00  0.00000000000E+00  0.50000499739E+01  0.50000500000E+01  0.51100000000E-03 0. -1.
         11   -1    0    0    0    0 -0.00000000000E+00 -0.00000000000E+00 -0.50000499739E+01  0.50000500000E+01  0.51100000000E-03 0.  1.
     100001    1    1    2    0    0 -0.17853737236E-01  0.10244381494E-01  0.87349421579E-02  0.50000500000E+01  0.50000000000E+01 0. -1.
     100001    1    1    2    0    0  0.17853737236E-01 -0.10244381494E-01 -0.87349421579E-02  0.50000500000E+01  0.50000000000E+01 0.  1.
</event>
<event>
 4    1  0.4897575E-001  0.5000050E+01  0.7818608E-02  0.2136455E+00
        -11   -1    0    0    0    0  0.00000000000E+00  0.00000000000E+00  0.50000499739E+01  0.50000500000E+01  0.51100000000E-03 0. -1.
         11   -1    0    0    0    0 -0.00000000000E+00 -0.00000000000E+00 -0.50000499739E+01  0.50000500000E+01  0.51100000000E-03 0.  1.
     100001    1    1    2    0    0  0.17583566080E-01 -0.37891739427E-03 -0.13808588832E-01  0.50000500000E+01  0.50000000000E+01 0. -1.
     100001    1    1    2    0    0 -0.17583566080E-01  0.37891739427E-03  0.13808588832E-01  0.50000500000E+01  0.50000000000E+01 0. -1.
</event>
<event>
 4    1  0.4897575E-001  0.5000050E+01  0.7818608E-02  0.2136455E+00
        -11   -1    0    0    0    0  0.00000000000E+00  0.00000000000E+00  0.50000499739E+01  0.50000500000E+01  0.51100000000E-03 0. -1.
         11   -1    0    0    0    0 -0.00000000000E+00 -0.00000000000E+00 -0.50000499739E+01  0.50000500000E+01  0.51100000000E-03 0.  1.
     100001    1    1    2    0    0 -0.17536219289E-01 -0.11641970319E-02  0.13824910788E-01  0.50000500000E+01  0.50000000000E+01 0. -1.
     100001    1    1    2    0    0  0.17536219289E-01  0.11641970319E-02 -0.13824910788E-01  0.50000500000E+01  0.50000000000E+01 0.  1.
</event>
<event>
 4    1  0.4897575E-001  0.5000050E+01  0.7818608E-02  0.2136455E+00
        -11   -1    0    0    0    0  0.00000000000E+00  0.00000000000E+00  0.50000499739E+01  0.50000500000E+01  0.51100000000E-03 0. -1.
         11   -1    0    0    0    0 -0.00000000000E+00 -0.00000000000E+00 -0.50000499739E+01  0.50000500000E+01  0.51100000000E-03 0.  1.
     100001    1    1    2    0    0 -0.11748292233E-01 -0.10351370439E-01 -0.15963372439E-01  0.50000500000E+01  0.50000000000E+01 0.  0.
     100001    1    1    2    0    0  0.11748292233E-01  0.10351370439E-01  0.15963372439E-01  0.50000500000E+01  0.50000000000E+01 0.  0.
</event>
<event>
 4    1  0.4897575E-001  0.5000050E+01  0.7818608E-02  0.2136455E+00
        -11   -1    0    0    0    0  0.00000000000E+00  0.00000000000E+00  0.50000499739E+01  0.50000500000E+01  0.51100000000E-03 0.  1.
         11   -1    0    0    0    0 -0.00000000000E+00 -0.00000000000E+00 -0.50000499739E+01  0.50000500000E+01  0.51100000000E-03 0. -1.
     100001    1    1    2    0    0 -0.14321832277E-01  0.17153751732E-01  0.79776045478E-03  0.50000500000E+01  0.50000000000E+01 0. -1.
     100001    1    1    2    0    0  0.14321832277E-01 -0.17153751732E-01 -0.79776045478E-03  0.50000500000E+01  0.50000000000E+01 0.  1.
</event>
<event>
 4    1  0.4897575E-001  0.5000050E+01  0.7818608E-02  0.2136455E+00
        -11   -1    0    0    0    0  0.00000000000E+00  0.00000000000E+00  0.50000499739E+01  0.50000500000E+01  0.51100000000E-03 0. -1.
         11   -1    0    0    0    0 -0.00000000000E+00 -0.00000000000E+00 -0.50000499739E+01  0.50000500000E+01  0.51100000000E-03 0.  1.
     100001    1    1    2    0    0  0.14584906211E-01 -0.11332348586E-01 -0.12604002791E-01  0.50000500000E+01  0.50000000000E+01 0.  1.
     100001    1    1    2    0    0 -0.14584906211E-01  0.11332348586E-01  0.12604002791E-01  0.50000500000E+01  0.50000000000E+01 0. -1.
</event>
<event>
 4    1  0.4897575E-001  0.5000050E+01  0.7818608E-02  0.2136455E+00
        -11   -1    0    0    0    0  0.00000000000E+00  0.00000000000E+00  0.50000499739E+01  0.50000500000E+01  0.51100000000E-03 0. -1.
         11   -1    0    0    0    0 -0.00000000000E+00 -0.00000000000E+00 -0.50000499739E+01  0.50000500000E+01  0.51100000000E-03 0.  1.
     100001    1    1    2    0    0  0.14560425747E-01  0.47037607161E-02 -0.16305555409E-01  0.50000500000E+01  0.50000000000E+01 0. -1.
     100001    1    1    2    0    0 -0.14560425747E-01 -0.47037607161E-02  0.16305555409E-01  0.50000500000E+01  0.50000000000E+01 0.  0.
</event>
<event>
 4    1  0.4897575E-001  0.5000050E+01  0.7818608E-02  0.2136455E+00
        -11   -1    0    0    0    0  0.00000000000E+00  0.00000000000E+00  0.50000499739E+01  0.50000500000E+01  0.51100000000E-03 0.  1.
         11   -1    0    0    0    0 -0.00000000000E+00 -0.00000000000E+00 -0.50000499739E+01  0.50000500000E+01  0.51100000000E-03 0. -1.
     100001    1    1    2    0    0  0.45340318997E-02  0.21240178483E-01 -0.53197624709E-02  0.50000500000E+01  0.50000000000E+01 0.  1.
     100001    1    1    2    0    0 -0.45340318997E-02 -0.21240178483E-01  0.53197624709E-02  0.50000500000E+01  0.50000000000E+01 0. -1.
</event>
<event>
 4    1  0.4897575E-001  0.5000050E+01  0.7818608E-02  0.2136455E+00
        -11   -1    0    0    0    0  0.00000000000E+00  0.00000000000E+00  0.50000499739E+01  0.50000500000E+01  0.51100000000E-03 0. -1.
         11   -1    0    0    0    0 -0.00000000000E+00 -0.00000000000E+00 -0.50000499739E+01  0.50000500000E+01  0.51100000000E-03 0.  1.
     100001    1    1    2    0    0  0.17819926317E-01 -0.15460267741E-03 -0.13506621490E-01  0.50000500000E+01  0.50000000000E+01 0.  0.
     100001    1    1    2    0    0 -0.17819926317E-01  0.15460267741E-03  0.13506621490E-01  0.50000500000E+01  0.50000000000E+01 0.  0.
</event>
<event>
 4    1  0.4897575E-001  0.5000050E+01  0.7818608E-02  0.2136455E+00
        -11   -1    0    0    0    0  0.00000000000E+00  0.00000000000E+00  0.50000499739E+01  0.50000500000E+01  0.51100000000E-03 0. -1.
         11   -1    0    0    0    0 -0.00000000000E+00 -0.00000000000E+00 -0.50000499739E+01  0.50000500000E+01  0.51100000000E-03 0.  1.
     100001    1    1    2    0    0  0.16205499542E-01 -0.14075599217E-01 -0.62659230172E-02  0.50000500000E+01  0.50000000000E+01 0. -1.
     100001    1    1    2    0    0 -0.16205499542E-01  0.14075599217E-01  0.62659230172E-02  0.50000500000E+01  0.50000000000E+01 0.  1.
</event>
<event>
 4    1  0.4897575E-001  0.5000050E+01  0.7818608E-02  0.2136455E+00
        -11   -1    0    0    0    0  0.00000000000E+00  0.00000000000E+00  0.50000499739E+01  0.50000500000E+01  0.51100000000E-03 0.  1.
         11   -1    0    0    0    0 -0.00000000000E+00 -0.00000000000E+00 -0.50000499739E+01  0.50000500000E+01  0.51100000000E-03 0. -1.
     100001    1    1    2    0    0 -0.44477045156E-02 -0.17469522911E-01  0.13230124482E-01  0.50000500000E+01  0.50000000000E+01 0.  1.
     100001    1    1    2    0    0  0.44477045156E-02  0.17469522911E-01 -0.13230124482E-01  0.50000500000E+01  0.50000000000E+01 0. -1.
</event>
<event>
 4    1  0.4897575E-001  0.5000050E+01  0.7818608E-02  0.2136455E+00
        -11   -1    0    0    0    0  0.00000000000E+00  0.00000000000E+00  0.50000499739E+01  0.50000500000E+01  0.51100000000E-03 0. -1.
         11   -1    0    0    0    0 -0.00000000000E+00 -0.00000000000E+00 -0.50000499739E+01  0.50000500000E+01  0.51100000000E-03 0.  1.
     100001    1    1    2    0    0 -0.44872428137E-02  0.15041742763E-02  0.21854166918E-01  0.50000500000E+01  0.50000000000E+01 0. -1.
     100001    1    1    2    0    0  0.44872428137E-02 -0.15041742763E-02 -0.21854166918E-01  0.50000500000E+01  0.50000000000E+01 0.  1.
</event>
<event>
 4    1  0.4897575E-001  0.5000050E+01  0.7818608E-02  0.2136455E+00
        -11   -1    0    0    0    0  0.00000000000E+00  0.00000000000E+00  0.50000499739E+01  0.50000500000E+01  0.51100000000E-03 0. -1.
         11   -1    0    0    0    0 -0.00000000000E+00 -0.00000000000E+00 -0.50000499739E+01  0.50000500000E+01  0.51100000000E-03 0.  1.
     100001    1    1    2    0    0 -0.16583665079E-01  0.86883591591E-02  0.12226895258E-01  0.50000500000E+01  0.50000000000E+01 0.  0.
     100001    1    1    2    0    0  0.16583665079E-01 -0.86883591591E-02 -0.12226895258E-01  0.50000500000E+01  0.50000000000E+01 0.  0.
</event>
<event>
 4    1  0.4897575E-001  0.5000050E+01  0.7818608E-02  0.2136455E+00
        -11   -1    0    0    0    0  0.00000000000E+00  0.00000000000E+00  0.50000499739E+01  0.50000500000E+01  0.51100000000E-03 0. -1.
         11   -1    0    0    0    0 -0.00000000000E+00 -0.00000000000E+00 -0.50000499739E+01  0.50000500000E+01  0.51100000000E-03 0.  1.
     100001    1    1    2    0    0 -0.37447967745E-02 -0.21390782796E-01  0.53304229201E-02  0.50000500000E+01  0.50000000000E+01 0. -1.
     100001    1    1    2    0    0  0.37447967745E-02  0.21390782796E-01 -0.53304229201E-02  0.50000500000E+01  0.50000000000E+01 0.  1.
</event>
<event>
 4    1  0.4897575E-001  0.5000050E+01  0.7818608E-02  0.2136455E+00
        -11   -1    0    0    0    0  0.00000000000E+00  0.00000000000E+00  0.50000499739E+01  0.50000500000E+01  0.51100000000E-03 0. -1.
         11   -1    0    0    0    0 -0.00000000000E+00 -0.00000000000E+00 -0.50000499739E+01  0.50000500000E+01  0.51100000000E-03 0.  1.
     100001    1    1    2    0    0 -0.20957709573E-01 -0.34906450273E-02  0.69708182275E-02  0.50000500000E+01  0.50000000000E+01 0.  0.
     100001    1    1    2    0    0  0.20957709573E-01  0.34906450273E-02 -0.69708182275E-02  0.50000500000E+01  0.50000000000E+01 0.  0.
</event>
<event>
 4    1  0.4897575E-001  0.5000050E+01  0.7818608E-02  0.2136455E+00
        -11   -1    0    0    0    0  0.00000000000E+00  0.00000000000E+00  0.50000499739E+01  0.50000500000E+01  0.51100000000E-03 0.  1.
         11   -1    0    0    0    0 -0.00000000000E+00 -0.00000000000E+00 -0.50000499739E+01  0.50000500000E+01  0.51100000000E-03 0. -1.
     100001    1    1    2    0    0  0.20132592648E-01 -0.80118667707E-02  0.55218841109E-02  0.50000500000E+01  0.50000000000E+01 0. -1.
     100001    1    1    2    0    0 -0.20132592648E-01  0.80118667707E-02 -0.55218841109E-02  0.50000500000E+01  0.50000000000E+01 0.  1.
</event>
<event>
 4    1  0.4897575E-001  0.5000050E+01  0.7818608E-02  0.2136455E+00
        -11   -1    0    0    0    0  0.00000000000E+00  0.00000000000E+00  0.50000499739E+01  0.50000500000E+01  0.51100000000E-03 0.  1.
         11   -1    0    0    0    0 -0.00000000000E+00 -0.00000000000E+00 -0.50000499739E+01  0.50000500000E+01  0.51100000000E-03 0. -1.
     100001    1    1    2    0    0 -0.28564664719E-02  0.22163435281E-01 -0.79071857082E-03  0.50000500000E+01  0.50000000000E+01 0. -1.
     100001    1    1    2    0    0  0.28564664719E-02 -0.22163435281E-01  0.79071857082E-03  0.50000500000E+01  0.50000000000E+01 0.  1.
</event>
<event>
 4    1  0.4897575E-001  0.5000050E+01  0.7818608E-02  0.2136455E+00
        -11   -1    0    0    0    0  0.00000000000E+00  0.00000000000E+00  0.50000499739E+01  0.50000500000E+01  0.51100000000E-03 0.  1.
         11   -1    0    0    0    0 -0.00000000000E+00 -0.00000000000E+00 -0.50000499739E+01  0.50000500000E+01  0.51100000000E-03 0. -1.
     100001    1    1    2    0    0 -0.15726014892E-01  0.75824397042E-02 -0.13971455319E-01  0.50000500000E+01  0.50000000000E+01 0. -1.
     100001    1    1    2    0    0  0.15726014892E-01 -0.75824397042E-02  0.13971455319E-01  0.50000500000E+01  0.50000000000E+01 0.  0.
</event>
<event>
 4    1  0.4897575E-001  0.5000050E+01  0.7818608E-02  0.2136455E+00
        -11   -1    0    0    0    0  0.00000000000E+00  0.00000000000E+00  0.50000499739E+01  0.50000500000E+01  0.51100000000E-03 0. -1.
         11   -1    0    0    0    0 -0.00000000000E+00 -0.00000000000E+00 -0.50000499739E+01  0.50000500000E+01  0.51100000000E-03 0.  1.
     100001    1    1    2    0    0 -0.81363055219E-02  0.20316797994E-01  0.45859297544E-02  0.50000500000E+01  0.50000000000E+01 0. -1.
     100001    1    1    2    0    0  0.81363055219E-02 -0.20316797994E-01 -0.45859297544E-02  0.50000500000E+01  0.50000000000E+01 0.  0.
</event>
<event>
 4    1  0.4897575E-001  0.5000050E+01  0.7818608E-02  0.2136455E+00
        -11   -1    0    0    0    0  0.00000000000E+00  0.00000000000E+00  0.50000499739E+01  0.50000500000E+01  0.51100000000E-03 0. -1.
         11   -1    0    0    0    0 -0.00000000000E+00 -0.00000000000E+00 -0.50000499739E+01  0.50000500000E+01  0.51100000000E-03 0.  1.
     100001    1    1    2    0    0 -0.16966682524E-01 -0.13147890615E-01  0.62663511309E-02  0.50000500000E+01  0.50000000000E+01 0.  1.
     100001    1    1    2    0    0  0.16966682524E-01  0.13147890615E-01 -0.62663511309E-02  0.50000500000E+01  0.50000000000E+01 0.  1.
</event>
<event>
 4    1  0.4897575E-001  0.5000050E+01  0.7818608E-02  0.2136455E+00
        -11   -1    0    0    0    0  0.00000000000E+00  0.00000000000E+00  0.50000499739E+01  0.50000500000E+01  0.51100000000E-03 0.  1.
         11   -1    0    0    0    0 -0.00000000000E+00 -0.00000000000E+00 -0.50000499739E+01  0.50000500000E+01  0.51100000000E-03 0. -1.
     100001    1    1    2    0    0  0.77012442466E-02 -0.32527950951E-02 -0.20739157676E-01  0.50000500000E+01  0.50000000000E+01 0.  0.
     100001    1    1    2    0    0 -0.77012442466E-02  0.32527950951E-02  0.20739157676E-01  0.50000500000E+01  0.50000000000E+01 0.  1.
</event>
<event>
 4    1  0.4897575E-001  0.5000050E+01  0.7818608E-02  0.2136455E+00
        -11   -1    0    0    0    0  0.00000000000E+00  0.00000000000E+00  0.50000499739E+01  0.50000500000E+01  0.51100000000E-03 0.  1.
         11   -1    0    0    0    0 -0.00000000000E+00 -0.00000000000E+00 -0.50000499739E+01  0.50000500000E+01  0.51100000000E-03 0. -1.
     100001    1    1    2    0    0  0.82794229493E-02  0.63373709332E-02 -0.19781086555E-01  0.50000500000E+01  0.50000000000E+01 0. -1.
     100001    1    1    2    0    0 -0.82794229493E-02 -0.63373709332E-02  0.19781086555E-01  0.50000500000E+01  0.50000000000E+01 0. -1.
</event>
<event>
 4    1  0.4897575E-001  0.5000050E+01  0.7818608E-02  0.2136455E+00
        -11   -1    0    0    0    0  0.00000000000E+00  0.00000000000E+00  0.50000499739E+01  0.50000500000E+01  0.51100000000E-03 0. -1.
         11   -1    0    0    0    0 -0.00000000000E+00 -0.00000000000E+00 -0.50000499739E+01  0.50000500000E+01  0.51100000000E-03 0.  1.
     100001    1    1    2    0    0  0.16932851886E-01 -0.32017673411E-02 -0.14248849529E-01  0.50000500000E+01  0.50000000000E+01 0.  0.
     100001    1    1    2    0    0 -0.16932851886E-01  0.32017673411E-02  0.14248849529E-01  0.50000500000E+01  0.50000000000E+01 0.  0.
</event>
<event>
 4    1  0.4897575E-001  0.5000050E+01  0.7818608E-02  0.2136455E+00
        -11   -1    0    0    0    0  0.00000000000E+00  0.00000000000E+00  0.50000499739E+01  0.50000500000E+01  0.51100000000E-03 0.  1.
         11   -1    0    0    0    0 -0.00000000000E+00 -0.00000000000E+00 -0.50000499739E+01  0.50000500000E+01  0.51100000000E-03 0. -1.
     100001    1    1    2    0    0 -0.12707548794E-02  0.53522690270E-02 -0.21673506830E-01  0.50000500000E+01  0.50000000000E+01 0.  0.
     100001    1    1    2    0    0  0.12707548794E-02 -0.53522690270E-02  0.21673506830E-01  0.50000500000E+01  0.50000000000E+01 0.  0.
</event>
<event>
 4    1  0.4897575E-001  0.5000050E+01  0.7818608E-02  0.2136455E+00
        -11   -1    0    0    0    0  0.00000000000E+00  0.00000000000E+00  0.50000499739E+01  0.50000500000E+01  0.51100000000E-03 0.  1.
         11   -1    0    0    0    0 -0.00000000000E+00 -0.00000000000E+00 -0.50000499739E+01  0.50000500000E+01  0.51100000000E-03 0. -1.
     100001    1    1    2    0    0  0.19247871660E-01  0.60386886464E-02 -0.96465629110E-02  0.50000500000E+01  0.50000000000E+01 0. -1.
     100001    1    1    2    0    0 -0.19247871660E-01 -0.60386886464E-02  0.96465629110E-02  0.50000500000E+01  0.50000000000E+01 0.  1.
</event>
<event>
 4    1  0.4897575E-001  0.5000050E+01  0.7818608E-02  0.2136455E+00
        -11   -1    0    0    0    0  0.00000000000E+00  0.00000000000E+00  0.50000499739E+01  0.50000500000E+01  0.51100000000E-03 0. -1.
         11   -1    0    0    0    0 -0.00000000000E+00 -0.00000000000E+00 -0.50000499739E+01  0.50000500000E+01  0.51100000000E-03 0.  1.
     100001    1    1    2    0    0 -0.29410078932E-02 -0.20329417151E-01 -0.88355968035E-02  0.50000500000E+01  0.50000000000E+01 0.  1.
     100001    1    1    2    0    0  0.29410078932E-02  0.20329417151E-01  0.88355968035E-02  0.50000500000E+01  0.50000000000E+01 0. -1.
</event>
<event>
 4    1  0.4897575E-001  0.5000050E+01  0.7818608E-02  0.2136455E+00
        -11   -1    0    0    0    0  0.00000000000E+00  0.00000000000E+00  0.50000499739E+01  0.50000500000E+01  0.51100000000E-03 0. -1.
         11   -1    0    0    0    0 -0.00000000000E+00 -0.00000000000E+00 -0.50000499739E+01  0.50000500000E+01  0.51100000000E-03 0.  1.
     100001    1    1    2    0    0  0.14428985338E-01  0.24143129793E-02 -0.16910883328E-01  0.50000500000E+01  0.50000000000E+01 0.  0.
     100001    1    1    2    0    0 -0.14428985338E-01 -0.24143129793E-02  0.16910883328E-01  0.50000500000E+01  0.50000000000E+01 0.  0.
</event>
<event>
 4    1  0.4897575E-001  0.5000050E+01  0.7818608E-02  0.2136455E+00
        -11   -1    0    0    0    0  0.00000000000E+00  0.00000000000E+00  0.50000499739E+01  0.50000500000E+01  0.51100000000E-03 0. -1.
         11   -1    0    0    0    0 -0.00000000000E+00 -0.00000000000E+00 -0.50000499739E+01  0.50000500000E+01  0.51100000000E-03 0.  1.
     100001    1    1    2    0    0 -0.38282900908E-02 -0.49201413955E-02  0.21474145003E-01  0.50000500000E+01  0.50000000000E+01 0.  0.
     100001    1    1    2    0    0  0.38282900908E-02  0.49201413955E-02 -0.21474145003E-01  0.50000500000E+01  0.50000000000E+01 0.  1.
</event>
<event>
 4    1  0.4897575E-001  0.5000050E+01  0.7818608E-02  0.2136455E+00
        -11   -1    0    0    0    0  0.00000000000E+00  0.00000000000E+00  0.50000499739E+01  0.50000500000E+01  0.51100000000E-03 0.  1.
         11   -1    0    0    0    0 -0.00000000000E+00 -0.00000000000E+00 -0.50000499739E+01  0.50000500000E+01  0.51100000000E-03 0. -1.
     100001    1    1    2    0    0  0.41834193877E-02 -0.12243870760E-01 -0.18237026376E-01  0.50000500000E+01  0.50000000000E+01 0.  0.
     100001    1    1    2    0    0 -0.41834193877E-02  0.12243870760E-01  0.18237026376E-01  0.50000500000E+01  0.50000000000E+01 0.  0.
</event>
<event>
 4    1  0.4897575E-001  0.5000050E+01  0.7818608E-02  0.2136455E+00
        -11   -1    0    0    0    0  0.00000000000E+00  0.00000000000E+00  0.50000499739E+01  0.50000500000E+01  0.51100000000E-03 0. -1.
         11   -1    0    0    0    0 -0.00000000000E+00 -0.00000000000E+00 -0.50000499739E+01  0.50000500000E+01  0.51100000000E-03 0.  1.
     100001    1    1    2    0    0 -0.69514416555E-02 -0.21141342240E-01  0.21733861155E-02  0.50000500000E+01  0.50000000000E+01 0. -1.
     100001    1    1    2    0    0  0.69514416555E-02  0.21141342240E-01 -0.21733861155E-02  0.50000500000E+01  0.50000000000E+01 0.  1.
</event>
<event>
 4    1  0.4897575E-001  0.5000050E+01  0.7818608E-02  0.2136455E+00
        -11   -1    0    0    0    0  0.00000000000E+00  0.00000000000E+00  0.50000499739E+01  0.50000500000E+01  0.51100000000E-03 0.  1.
         11   -1    0    0    0    0 -0.00000000000E+00 -0.00000000000E+00 -0.50000499739E+01  0.50000500000E+01  0.51100000000E-03 0. -1.
     100001    1    1    2    0    0  0.12859145374E-01 -0.12330261696E-01  0.13513309244E-01  0.50000500000E+01  0.50000000000E+01 0.  0.
     100001    1    1    2    0    0 -0.12859145374E-01  0.12330261696E-01 -0.13513309244E-01  0.50000500000E+01  0.50000000000E+01 0.  0.
</event>
<event>
 4    1  0.4897575E-001  0.5000050E+01  0.7818608E-02  0.2136455E+00
        -11   -1    0    0    0    0  0.00000000000E+00  0.00000000000E+00  0.50000499739E+01  0.50000500000E+01  0.51100000000E-03 0. -1.
         11   -1    0    0    0    0 -0.00000000000E+00 -0.00000000000E+00 -0.50000499739E+01  0.50000500000E+01  0.51100000000E-03 0.  1.
     100001    1    1    2    0    0 -0.91658173294E-03  0.20005536170E-01  0.99469040657E-02  0.50000500000E+01  0.50000000000E+01 0.  0.
     100001    1    1    2    0    0  0.91658173294E-03 -0.20005536170E-01 -0.99469040657E-02  0.50000500000E+01  0.50000000000E+01 0.  0.
</event>
<event>
 4    1  0.4897575E-001  0.5000050E+01  0.7818608E-02  0.2136455E+00
        -11   -1    0    0    0    0  0.00000000000E+00  0.00000000000E+00  0.50000499739E+01  0.50000500000E+01  0.51100000000E-03 0. -1.
         11   -1    0    0    0    0 -0.00000000000E+00 -0.00000000000E+00 -0.50000499739E+01  0.50000500000E+01  0.51100000000E-03 0.  1.
     100001    1    1    2    0    0 -0.11362480908E-01  0.17834275188E-01 -0.72687795485E-02  0.50000500000E+01  0.50000000000E+01 0.  1.
     100001    1    1    2    0    0  0.11362480908E-01 -0.17834275188E-01  0.72687795485E-02  0.50000500000E+01  0.50000000000E+01 0. -1.
</event>
<event>
 4    1  0.4897575E-001  0.5000050E+01  0.7818608E-02  0.2136455E+00
        -11   -1    0    0    0    0  0.00000000000E+00  0.00000000000E+00  0.50000499739E+01  0.50000500000E+01  0.51100000000E-03 0. -1.
         11   -1    0    0    0    0 -0.00000000000E+00 -0.00000000000E+00 -0.50000499739E+01  0.50000500000E+01  0.51100000000E-03 0.  1.
     100001    1    1    2    0    0  0.51382644025E-02 -0.20228187632E-01 -0.80262795909E-02  0.50000500000E+01  0.50000000000E+01 0.  0.
     100001    1    1    2    0    0 -0.51382644025E-02  0.20228187632E-01  0.80262795909E-02  0.50000500000E+01  0.50000000000E+01 0.  0.
</event>
<event>
 4    1  0.4897575E-001  0.5000050E+01  0.7818608E-02  0.2136455E+00
        -11   -1    0    0    0    0  0.00000000000E+00  0.00000000000E+00  0.50000499739E+01  0.50000500000E+01  0.51100000000E-03 0. -1.
         11   -1    0    0    0    0 -0.00000000000E+00 -0.00000000000E+00 -0.50000499739E+01  0.50000500000E+01  0.51100000000E-03 0.  1.
     100001    1    1    2    0    0  0.36578916049E-02 -0.18426310240E-01  0.12128207615E-01  0.50000500000E+01  0.50000000000E+01 0. -1.
     100001    1    1    2    0    0 -0.36578916049E-02  0.18426310240E-01 -0.12128207615E-01  0.50000500000E+01  0.50000000000E+01 0.  1.
</event>
<event>
 4    1  0.4897575E-001  0.5000050E+01  0.7818608E-02  0.2136455E+00
        -11   -1    0    0    0    0  0.00000000000E+00  0.00000000000E+00  0.50000499739E+01  0.50000500000E+01  0.51100000000E-03 0. -1.
         11   -1    0    0    0    0 -0.00000000000E+00 -0.00000000000E+00 -0.50000499739E+01  0.50000500000E+01  0.51100000000E-03 0.  1.
     100001    1    1    2    0    0 -0.22257640607E-01 -0.48675168410E-03 -0.20887813171E-02  0.50000500000E+01  0.50000000000E+01 0. -1.
     100001    1    1    2    0    0  0.22257640607E-01  0.48675168410E-03  0.20887813171E-02  0.50000500000E+01  0.50000000000E+01 0.  1.
</event>
<event>
 4    1  0.4897575E-001  0.5000050E+01  0.7818608E-02  0.2136455E+00
        -11   -1    0    0    0    0  0.00000000000E+00  0.00000000000E+00  0.50000499739E+01  0.50000500000E+01  0.51100000000E-03 0. -1.
         11   -1    0    0    0    0 -0.00000000000E+00 -0.00000000000E+00 -0.50000499739E+01  0.50000500000E+01  0.51100000000E-03 0.  1.
     100001    1    1    2    0    0  0.53468280544E-02  0.20627315705E-01 -0.67770035101E-02  0.50000500000E+01  0.50000000000E+01 0. -1.
     100001    1    1    2    0    0 -0.53468280544E-02 -0.20627315705E-01  0.67770035101E-02  0.50000500000E+01  0.50000000000E+01 0.  0.
</event>
<event>
 4    1  0.4897575E-001  0.5000050E+01  0.7818608E-02  0.2136455E+00
        -11   -1    0    0    0    0  0.00000000000E+00  0.00000000000E+00  0.50000499739E+01  0.50000500000E+01  0.51100000000E-03 0.  1.
         11   -1    0    0    0    0 -0.00000000000E+00 -0.00000000000E+00 -0.50000499739E+01  0.50000500000E+01  0.51100000000E-03 0. -1.
     100001    1    1    2    0    0  0.12776717454E-01  0.15762972914E-01 -0.93960989789E-02  0.50000500000E+01  0.50000000000E+01 0.  1.
     100001    1    1    2    0    0 -0.12776717454E-01 -0.15762972914E-01  0.93960989789E-02  0.50000500000E+01  0.50000000000E+01 0.  1.
</event>
<event>
 4    1  0.4897575E-001  0.5000050E+01  0.7818608E-02  0.2136455E+00
        -11   -1    0    0    0    0  0.00000000000E+00  0.00000000000E+00  0.50000499739E+01  0.50000500000E+01  0.51100000000E-03 0. -1.
         11   -1    0    0    0    0 -0.00000000000E+00 -0.00000000000E+00 -0.50000499739E+01  0.50000500000E+01  0.51100000000E-03 0.  1.
     100001    1    1    2    0    0 -0.42571176984E-02  0.13244833536E-01  0.17505822846E-01  0.50000500000E+01  0.50000000000E+01 0. -1.
     100001    1    1    2    0    0  0.42571176984E-02 -0.13244833536E-01 -0.17505822846E-01  0.50000500000E+01  0.50000000000E+01 0.  1.
</event>
<event>
 4    1  0.4897575E-001  0.5000050E+01  0.7818608E-02  0.2136455E+00
        -11   -1    0    0    0    0  0.00000000000E+00  0.00000000000E+00  0.50000499739E+01  0.50000500000E+01  0.51100000000E-03 0. -1.
         11   -1    0    0    0    0 -0.00000000000E+00 -0.00000000000E+00 -0.50000499739E+01  0.50000500000E+01  0.51100000000E-03 0.  1.
     100001    1    1    2    0    0  0.15497499114E-01  0.11530643594E-01  0.11263848345E-01  0.50000500000E+01  0.50000000000E+01 0.  0.
     100001    1    1    2    0    0 -0.15497499114E-01 -0.11530643594E-01 -0.11263848345E-01  0.50000500000E+01  0.50000000000E+01 0. -1.
</event>
<event>
 4    1  0.4897575E-001  0.5000050E+01  0.7818608E-02  0.2136455E+00
        -11   -1    0    0    0    0  0.00000000000E+00  0.00000000000E+00  0.50000499739E+01  0.50000500000E+01  0.51100000000E-03 0. -1.
         11   -1    0    0    0    0 -0.00000000000E+00 -0.00000000000E+00 -0.50000499739E+01  0.50000500000E+01  0.51100000000E-03 0.  1.
     100001    1    1    2    0    0 -0.61964163019E-02 -0.20832721138E-01 -0.52540132281E-02  0.50000500000E+01  0.50000000000E+01 0.  1.
     100001    1    1    2    0    0  0.61964163019E-02  0.20832721138E-01  0.52540132281E-02  0.50000500000E+01  0.50000000000E+01 0.  0.
</event>
<event>
 4    1  0.4897575E-001  0.5000050E+01  0.7818608E-02  0.2136455E+00
        -11   -1    0    0    0    0  0.00000000000E+00  0.00000000000E+00  0.50000499739E+01  0.50000500000E+01  0.51100000000E-03 0.  1.
         11   -1    0    0    0    0 -0.00000000000E+00 -0.00000000000E+00 -0.50000499739E+01  0.50000500000E+01  0.51100000000E-03 0. -1.
     100001    1    1    2    0    0 -0.18697022402E-01  0.10170301769E-01 -0.68548388187E-02  0.50000500000E+01  0.50000000000E+01 0. -1.
     100001    1    1    2    0    0  0.18697022402E-01 -0.10170301769E-01  0.68548388187E-02  0.50000500000E+01  0.50000000000E+01 0.  0.
</event>
<event>
 4    1  0.4897575E-001  0.5000050E+01  0.7818608E-02  0.2136455E+00
        -11   -1    0    0    0    0  0.00000000000E+00  0.00000000000E+00  0.50000499739E+01  0.50000500000E+01  0.51100000000E-03 0.  1.
         11   -1    0    0    0    0 -0.00000000000E+00 -0.00000000000E+00 -0.50000499739E+01  0.50000500000E+01  0.51100000000E-03 0. -1.
     100001    1    1    2    0    0  0.14034561625E-02 -0.67076811728E-02 -0.21284732183E-01  0.50000500000E+01  0.50000000000E+01 0. -1.
     100001    1    1    2    0    0 -0.14034561625E-02  0.67076811728E-02  0.21284732183E-01  0.50000500000E+01  0.50000000000E+01 0.  0.
</event>
<event>
 4    1  0.4897575E-001  0.5000050E+01  0.7818608E-02  0.2136455E+00
        -11   -1    0    0    0    0  0.00000000000E+00  0.00000000000E+00  0.50000499739E+01  0.50000500000E+01  0.51100000000E-03 0.  1.
         11   -1    0    0    0    0 -0.00000000000E+00 -0.00000000000E+00 -0.50000499739E+01  0.50000500000E+01  0.51100000000E-03 0. -1.
     100001    1    1    2    0    0  0.16452684140E-01  0.15032999256E-01 -0.18222562767E-02  0.50000500000E+01  0.50000000000E+01 0.  0.
     100001    1    1    2    0    0 -0.16452684140E-01 -0.15032999256E-01  0.18222562767E-02  0.50000500000E+01  0.50000000000E+01 0.  0.
</event>
<event>
 4    1  0.4897575E-001  0.5000050E+01  0.7818608E-02  0.2136455E+00
        -11   -1    0    0    0    0  0.00000000000E+00  0.00000000000E+00  0.50000499739E+01  0.50000500000E+01  0.51100000000E-03 0. -1.
         11   -1    0    0    0    0 -0.00000000000E+00 -0.00000000000E+00 -0.50000499739E+01  0.50000500000E+01  0.51100000000E-03 0.  1.
     100001    1    1    2    0    0  0.75953685700E-02  0.17350929980E-01  0.11885205304E-01  0.50000500000E+01  0.50000000000E+01 0. -1.
     100001    1    1    2    0    0 -0.75953685700E-02 -0.17350929980E-01 -0.11885205304E-01  0.50000500000E+01  0.50000000000E+01 0.  1.
</event>
<event>
 4    1  0.4897575E-001  0.5000050E+01  0.7818608E-02  0.2136455E+00
        -11   -1    0    0    0    0  0.00000000000E+00  0.00000000000E+00  0.50000499739E+01  0.50000500000E+01  0.51100000000E-03 0.  1.
         11   -1    0    0    0    0 -0.00000000000E+00 -0.00000000000E+00 -0.50000499739E+01  0.50000500000E+01  0.51100000000E-03 0. -1.
     100001    1    1    2    0    0 -0.12279655431E-02  0.17961931025E-01 -0.13261358697E-01  0.50000500000E+01  0.50000000000E+01 0. -1.
     100001    1    1    2    0    0  0.12279655431E-02 -0.17961931025E-01  0.13261358697E-01  0.50000500000E+01  0.50000000000E+01 0.  1.
</event>
<event>
 4    1  0.4897575E-001  0.5000050E+01  0.7818608E-02  0.2136455E+00
        -11   -1    0    0    0    0  0.00000000000E+00  0.00000000000E+00  0.50000499739E+01  0.50000500000E+01  0.51100000000E-03 0.  1.
         11   -1    0    0    0    0 -0.00000000000E+00 -0.00000000000E+00 -0.50000499739E+01  0.50000500000E+01  0.51100000000E-03 0. -1.
     100001    1    1    2    0    0 -0.11586839329E-01  0.11599804641E-01  0.15205005315E-01  0.50000500000E+01  0.50000000000E+01 0.  0.
     100001    1    1    2    0    0  0.11586839329E-01 -0.11599804641E-01 -0.15205005315E-01  0.50000500000E+01  0.50000000000E+01 0.  0.
</event>
<event>
 4    1  0.4897575E-001  0.5000050E+01  0.7818608E-02  0.2136455E+00
        -11   -1    0    0    0    0  0.00000000000E+00  0.00000000000E+00  0.50000499739E+01  0.50000500000E+01  0.51100000000E-03 0.  1.
         11   -1    0    0    0    0 -0.00000000000E+00 -0.00000000000E+00 -0.50000499739E+01  0.50000500000E+01  0.51100000000E-03 0. -1.
     100001    1    1    2    0    0 -0.69761940072E-02  0.15623003523E-01 -0.14396422406E-01  0.50000500000E+01  0.50000000000E+01 0. -1.
     100001    1    1    2    0    0  0.69761940072E-02 -0.15623003523E-01  0.14396422406E-01  0.50000500000E+01  0.50000000000E+01 0. -1.
</event>
<event>
 4    1  0.4897575E-001  0.5000050E+01  0.7818608E-02  0.2136455E+00
        -11   -1    0    0    0    0  0.00000000000E+00  0.00000000000E+00  0.50000499739E+01  0.50000500000E+01  0.51100000000E-03 0.  1.
         11   -1    0    0    0    0 -0.00000000000E+00 -0.00000000000E+00 -0.50000499739E+01  0.50000500000E+01  0.51100000000E-03 0. -1.
     100001    1    1    2    0    0  0.20596502589E-02 -0.21785595530E-01  0.45987137574E-02  0.50000500000E+01  0.50000000000E+01 0. -1.
     100001    1    1    2    0    0 -0.20596502589E-02  0.21785595530E-01 -0.45987137574E-02  0.50000500000E+01  0.50000000000E+01 0.  0.
</event>
<event>
 4    1  0.4897575E-001  0.5000050E+01  0.7818608E-02  0.2136455E+00
        -11   -1    0    0    0    0  0.00000000000E+00  0.00000000000E+00  0.50000499739E+01  0.50000500000E+01  0.51100000000E-03 0.  1.
         11   -1    0    0    0    0 -0.00000000000E+00 -0.00000000000E+00 -0.50000499739E+01  0.50000500000E+01  0.51100000000E-03 0. -1.
     100001    1    1    2    0    0 -0.84113940341E-03  0.22339390571E-01  0.49660189269E-03  0.50000500000E+01  0.50000000000E+01 0. -1.
     100001    1    1    2    0    0  0.84113940341E-03 -0.22339390571E-01 -0.49660189269E-03  0.50000500000E+01  0.50000000000E+01 0.  0.
</event>
<event>
 4    1  0.4897575E-001  0.5000050E+01  0.7818608E-02  0.2136455E+00
        -11   -1    0    0    0    0  0.00000000000E+00  0.00000000000E+00  0.50000499739E+01  0.50000500000E+01  0.51100000000E-03 0. -1.
         11   -1    0    0    0    0 -0.00000000000E+00 -0.00000000000E+00 -0.50000499739E+01  0.50000500000E+01  0.51100000000E-03 0.  1.
     100001    1    1    2    0    0  0.78498290726E-02 -0.20912647017E-01 -0.10217036060E-02  0.50000500000E+01  0.50000000000E+01 0. -1.
     100001    1    1    2    0    0 -0.78498290726E-02  0.20912647017E-01  0.10217036060E-02  0.50000500000E+01  0.50000000000E+01 0.  0.
</event>
<event>
 4    1  0.4897575E-001  0.5000050E+01  0.7818608E-02  0.2136455E+00
        -11   -1    0    0    0    0  0.00000000000E+00  0.00000000000E+00  0.50000499739E+01  0.50000500000E+01  0.51100000000E-03 0. -1.
         11   -1    0    0    0    0 -0.00000000000E+00 -0.00000000000E+00 -0.50000499739E+01  0.50000500000E+01  0.51100000000E-03 0.  1.
     100001    1    1    2    0    0  0.42152965736E-02 -0.16834394068E-01 -0.14100955683E-01  0.50000500000E+01  0.50000000000E+01 0.  0.
     100001    1    1    2    0    0 -0.42152965736E-02  0.16834394068E-01  0.14100955683E-01  0.50000500000E+01  0.50000000000E+01 0.  1.
</event>
<event>
 4    1  0.4897575E-001  0.5000050E+01  0.7818608E-02  0.2136455E+00
        -11   -1    0    0    0    0  0.00000000000E+00  0.00000000000E+00  0.50000499739E+01  0.50000500000E+01  0.51100000000E-03 0. -1.
         11   -1    0    0    0    0 -0.00000000000E+00 -0.00000000000E+00 -0.50000499739E+01  0.50000500000E+01  0.51100000000E-03 0.  1.
     100001    1    1    2    0    0  0.10523389250E-01 -0.16080141657E-01 -0.11431964967E-01  0.50000500000E+01  0.50000000000E+01 0.  1.
     100001    1    1    2    0    0 -0.10523389250E-01  0.16080141657E-01  0.11431964967E-01  0.50000500000E+01  0.50000000000E+01 0. -1.
</event>
<event>
 4    1  0.4897575E-001  0.5000050E+01  0.7818608E-02  0.2136455E+00
        -11   -1    0    0    0    0  0.00000000000E+00  0.00000000000E+00  0.50000499739E+01  0.50000500000E+01  0.51100000000E-03 0.  1.
         11   -1    0    0    0    0 -0.00000000000E+00 -0.00000000000E+00 -0.50000499739E+01  0.50000500000E+01  0.51100000000E-03 0. -1.
     100001    1    1    2    0    0  0.82954931960E-02 -0.12770309746E-02  0.20725744487E-01  0.50000500000E+01  0.50000000000E+01 0.  0.
     100001    1    1    2    0    0 -0.82954931960E-02  0.12770309746E-02 -0.20725744487E-01  0.50000500000E+01  0.50000000000E+01 0. -1.
</event>
<event>
 4    1  0.4897575E-001  0.5000050E+01  0.7818608E-02  0.2136455E+00
        -11   -1    0    0    0    0  0.00000000000E+00  0.00000000000E+00  0.50000499739E+01  0.50000500000E+01  0.51100000000E-03 0.  1.
         11   -1    0    0    0    0 -0.00000000000E+00 -0.00000000000E+00 -0.50000499739E+01  0.50000500000E+01  0.51100000000E-03 0. -1.
     100001    1    1    2    0    0  0.21817332620E-01 -0.30575700297E-02 -0.38285457909E-02  0.50000500000E+01  0.50000000000E+01 0.  1.
     100001    1    1    2    0    0 -0.21817332620E-01  0.30575700297E-02  0.38285457909E-02  0.50000500000E+01  0.50000000000E+01 0.  0.
</event>
<event>
 4    1  0.4897575E-001  0.5000050E+01  0.7818608E-02  0.2136455E+00
        -11   -1    0    0    0    0  0.00000000000E+00  0.00000000000E+00  0.50000499739E+01  0.50000500000E+01  0.51100000000E-03 0. -1.
         11   -1    0    0    0    0 -0.00000000000E+00 -0.00000000000E+00 -0.50000499739E+01  0.50000500000E+01  0.51100000000E-03 0.  1.
     100001    1    1    2    0    0 -0.29902328039E-02  0.21212725521E-01  0.64094682898E-02  0.50000500000E+01  0.50000000000E+01 0.  0.
     100001    1    1    2    0    0  0.29902328039E-02 -0.21212725521E-01 -0.64094682898E-02  0.50000500000E+01  0.50000000000E+01 0.  0.
</event>
<event>
 4    1  0.4897575E-001  0.5000050E+01  0.7818608E-02  0.2136455E+00
        -11   -1    0    0    0    0  0.00000000000E+00  0.00000000000E+00  0.50000499739E+01  0.50000500000E+01  0.51100000000E-03 0.  1.
         11   -1    0    0    0    0 -0.00000000000E+00 -0.00000000000E+00 -0.50000499739E+01  0.50000500000E+01  0.51100000000E-03 0. -1.
     100001    1    1    2    0    0 -0.14656292731E-01  0.16637054929E-01  0.28989630343E-02  0.50000500000E+01  0.50000000000E+01 0. -1.
     100001    1    1    2    0    0  0.14656292731E-01 -0.16637054929E-01 -0.28989630343E-02  0.50000500000E+01  0.50000000000E+01 0.  0.
</event>
<event>
 4    1  0.4897575E-001  0.5000050E+01  0.7818608E-02  0.2136455E+00
        -11   -1    0    0    0    0  0.00000000000E+00  0.00000000000E+00  0.50000499739E+01  0.50000500000E+01  0.51100000000E-03 0. -1.
         11   -1    0    0    0    0 -0.00000000000E+00 -0.00000000000E+00 -0.50000499739E+01  0.50000500000E+01  0.51100000000E-03 0.  1.
     100001    1    1    2    0    0  0.53048587733E-02 -0.11605698689E-03 -0.21722051104E-01  0.50000500000E+01  0.50000000000E+01 0.  0.
     100001    1    1    2    0    0 -0.53048587733E-02  0.11605698689E-03  0.21722051104E-01  0.50000500000E+01  0.50000000000E+01 0. -1.
</event>
<event>
 4    1  0.4897575E-001  0.5000050E+01  0.7818608E-02  0.2136455E+00
        -11   -1    0    0    0    0  0.00000000000E+00  0.00000000000E+00  0.50000499739E+01  0.50000500000E+01  0.51100000000E-03 0.  1.
         11   -1    0    0    0    0 -0.00000000000E+00 -0.00000000000E+00 -0.50000499739E+01  0.50000500000E+01  0.51100000000E-03 0. -1.
     100001    1    1    2    0    0 -0.63952031230E-02  0.10055097661E-01 -0.18920858544E-01  0.50000500000E+01  0.50000000000E+01 0.  0.
     100001    1    1    2    0    0  0.63952031230E-02 -0.10055097661E-01  0.18920858544E-01  0.50000500000E+01  0.50000000000E+01 0.  0.
</event>
<event>
 4    1  0.4897575E-001  0.5000050E+01  0.7818608E-02  0.2136455E+00
        -11   -1    0    0    0    0  0.00000000000E+00  0.00000000000E+00  0.50000499739E+01  0.50000500000E+01  0.51100000000E-03 0.  1.
         11   -1    0    0    0    0 -0.00000000000E+00 -0.00000000000E+00 -0.50000499739E+01  0.50000500000E+01  0.51100000000E-03 0. -1.
     100001    1    1    2    0    0  0.15942553800E-01  0.10669109759E-01  0.11489454961E-01  0.50000500000E+01  0.50000000000E+01 0.  0.
     100001    1    1    2    0    0 -0.15942553800E-01 -0.10669109759E-01 -0.11489454961E-01  0.50000500000E+01  0.50000000000E+01 0.  0.
</event>
<event>
 4    1  0.4897575E-001  0.5000050E+01  0.7818608E-02  0.2136455E+00
        -11   -1    0    0    0    0  0.00000000000E+00  0.00000000000E+00  0.50000499739E+01  0.50000500000E+01  0.51100000000E-03 0. -1.
         11   -1    0    0    0    0 -0.00000000000E+00 -0.00000000000E+00 -0.50000499739E+01  0.50000500000E+01  0.51100000000E-03 0.  1.
     100001    1    1    2    0    0 -0.40835695952E-02 -0.15387324391E-01  0.15702140219E-01  0.50000500000E+01  0.50000000000E+01 0. -1.
     100001    1    1    2    0    0  0.40835695952E-02  0.15387324391E-01 -0.15702140219E-01  0.50000500000E+01  0.50000000000E+01 0.  1.
</event>
<event>
 4    1  0.4897575E-001  0.5000050E+01  0.7818608E-02  0.2136455E+00
        -11   -1    0    0    0    0  0.00000000000E+00  0.00000000000E+00  0.50000499739E+01  0.50000500000E+01  0.51100000000E-03 0. -1.
         11   -1    0    0    0    0 -0.00000000000E+00 -0.00000000000E+00 -0.50000499739E+01  0.50000500000E+01  0.51100000000E-03 0.  1.
     100001    1    1    2    0    0  0.19371857275E-01  0.10054657089E-01  0.48618429159E-02  0.50000500000E+01  0.50000000000E+01 0. -1.
     100001    1    1    2    0    0 -0.19371857275E-01 -0.10054657089E-01 -0.48618429159E-02  0.50000500000E+01  0.50000000000E+01 0.  1.
</event>
<event>
 4    1  0.4897575E-001  0.5000050E+01  0.7818608E-02  0.2136455E+00
        -11   -1    0    0    0    0  0.00000000000E+00  0.00000000000E+00  0.50000499739E+01  0.50000500000E+01  0.51100000000E-03 0. -1.
         11   -1    0    0    0    0 -0.00000000000E+00 -0.00000000000E+00 -0.50000499739E+01  0.50000500000E+01  0.51100000000E-03 0.  1.
     100001    1    1    2    0    0 -0.16402080449E-01  0.13220369366E-01 -0.74964051905E-02  0.50000500000E+01  0.50000000000E+01 0. -1.
     100001    1    1    2    0    0  0.16402080449E-01 -0.13220369366E-01  0.74964051905E-02  0.50000500000E+01  0.50000000000E+01 0.  0.
</event>
<event>
 4    1  0.4897575E-001  0.5000050E+01  0.7818608E-02  0.2136455E+00
        -11   -1    0    0    0    0  0.00000000000E+00  0.00000000000E+00  0.50000499739E+01  0.50000500000E+01  0.51100000000E-03 0.  1.
         11   -1    0    0    0    0 -0.00000000000E+00 -0.00000000000E+00 -0.50000499739E+01  0.50000500000E+01  0.51100000000E-03 0. -1.
     100001    1    1    2    0    0  0.20859079784E-01  0.55745099382E-02 -0.58160235128E-02  0.50000500000E+01  0.50000000000E+01 0.  1.
     100001    1    1    2    0    0 -0.20859079784E-01 -0.55745099382E-02  0.58160235128E-02  0.50000500000E+01  0.50000000000E+01 0.  0.
</event>
<event>
 4    1  0.4897575E-001  0.5000050E+01  0.7818608E-02  0.2136455E+00
        -11   -1    0    0    0    0  0.00000000000E+00  0.00000000000E+00  0.50000499739E+01  0.50000500000E+01  0.51100000000E-03 0.  1.
         11   -1    0    0    0    0 -0.00000000000E+00 -0.00000000000E+00 -0.50000499739E+01  0.50000500000E+01  0.51100000000E-03 0. -1.
     100001    1    1    2    0    0  0.16897393979E-01 -0.85448493757E-02  0.11893953332E-01  0.50000500000E+01  0.50000000000E+01 0.  0.
     100001    1    1    2    0    0 -0.16897393979E-01  0.85448493757E-02 -0.11893953332E-01  0.50000500000E+01  0.50000000000E+01 0.  0.
</event>
<event>
 4    1  0.4897575E-001  0.5000050E+01  0.7818608E-02  0.2136455E+00
        -11   -1    0    0    0    0  0.00000000000E+00  0.00000000000E+00  0.50000499739E+01  0.50000500000E+01  0.51100000000E-03 0.  1.
         11   -1    0    0    0    0 -0.00000000000E+00 -0.00000000000E+00 -0.50000499739E+01  0.50000500000E+01  0.51100000000E-03 0. -1.
     100001    1    1    2    0    0 -0.10194473714E-01 -0.45995316845E-02  0.19362838479E-01  0.50000500000E+01  0.50000000000E+01 0.  0.
     100001    1    1    2    0    0  0.10194473714E-01  0.45995316845E-02 -0.19362838479E-01  0.50000500000E+01  0.50000000000E+01 0. -1.
</event>
<event>
 4    1  0.4897575E-001  0.5000050E+01  0.7818608E-02  0.2136455E+00
        -11   -1    0    0    0    0  0.00000000000E+00  0.00000000000E+00  0.50000499739E+01  0.50000500000E+01  0.51100000000E-03 0.  1.
         11   -1    0    0    0    0 -0.00000000000E+00 -0.00000000000E+00 -0.50000499739E+01  0.50000500000E+01  0.51100000000E-03 0. -1.
     100001    1    1    2    0    0  0.18436367098E-01 -0.12619362687E-01 -0.92442068838E-03  0.50000500000E+01  0.50000000000E+01 0.  1.
     100001    1    1    2    0    0 -0.18436367098E-01  0.12619362687E-01  0.92442068838E-03  0.50000500000E+01  0.50000000000E+01 0. -1.
</event>
<event>
 4    1  0.4897575E-001  0.5000050E+01  0.7818608E-02  0.2136455E+00
        -11   -1    0    0    0    0  0.00000000000E+00  0.00000000000E+00  0.50000499739E+01  0.50000500000E+01  0.51100000000E-03 0.  1.
         11   -1    0    0    0    0 -0.00000000000E+00 -0.00000000000E+00 -0.50000499739E+01  0.50000500000E+01  0.51100000000E-03 0. -1.
     100001    1    1    2    0    0 -0.91454050799E-02 -0.20525566609E-03 -0.20403968634E-01  0.50000500000E+01  0.50000000000E+01 0.  0.
     100001    1    1    2    0    0  0.91454050799E-02  0.20525566609E-03  0.20403968634E-01  0.50000500000E+01  0.50000000000E+01 0.  1.
</event>
<event>
 4    1  0.4897575E-001  0.5000050E+01  0.7818608E-02  0.2136455E+00
        -11   -1    0    0    0    0  0.00000000000E+00  0.00000000000E+00  0.50000499739E+01  0.50000500000E+01  0.51100000000E-03 0. -1.
         11   -1    0    0    0    0 -0.00000000000E+00 -0.00000000000E+00 -0.50000499739E+01  0.50000500000E+01  0.51100000000E-03 0.  1.
     100001    1    1    2    0    0  0.70762467404E-02 -0.68734899181E-02  0.20066996995E-01  0.50000500000E+01  0.50000000000E+01 0. -1.
     100001    1    1    2    0    0 -0.70762467404E-02  0.68734899181E-02 -0.20066996995E-01  0.50000500000E+01  0.50000000000E+01 0.  1.
</event>
<event>
 4    1  0.4897575E-001  0.5000050E+01  0.7818608E-02  0.2136455E+00
        -11   -1    0    0    0    0  0.00000000000E+00  0.00000000000E+00  0.50000499739E+01  0.50000500000E+01  0.51100000000E-03 0.  1.
         11   -1    0    0    0    0 -0.00000000000E+00 -0.00000000000E+00 -0.50000499739E+01  0.50000500000E+01  0.51100000000E-03 0. -1.
     100001    1    1    2    0    0  0.15861108513E-01  0.58082920266E-02  0.14652354093E-01  0.50000500000E+01  0.50000000000E+01 0.  0.
     100001    1    1    2    0    0 -0.15861108513E-01 -0.58082920266E-02 -0.14652354093E-01  0.50000500000E+01  0.50000000000E+01 0.  0.
</event>
<event>
 4    1  0.4897575E-001  0.5000050E+01  0.7818608E-02  0.2136455E+00
        -11   -1    0    0    0    0  0.00000000000E+00  0.00000000000E+00  0.50000499739E+01  0.50000500000E+01  0.51100000000E-03 0. -1.
         11   -1    0    0    0    0 -0.00000000000E+00 -0.00000000000E+00 -0.50000499739E+01  0.50000500000E+01  0.51100000000E-03 0.  1.
     100001    1    1    2    0    0 -0.45862498794E-02 -0.21720088830E-01 -0.26845024234E-02  0.50000500000E+01  0.50000000000E+01 0.  1.
     100001    1    1    2    0    0  0.45862498794E-02  0.21720088830E-01  0.26845024234E-02  0.50000500000E+01  0.50000000000E+01 0. -1.
</event>
<event>
 4    1  0.4897575E-001  0.5000050E+01  0.7818608E-02  0.2136455E+00
        -11   -1    0    0    0    0  0.00000000000E+00  0.00000000000E+00  0.50000499739E+01  0.50000500000E+01  0.51100000000E-03 0.  1.
         11   -1    0    0    0    0 -0.00000000000E+00 -0.00000000000E+00 -0.50000499739E+01  0.50000500000E+01  0.51100000000E-03 0. -1.
     100001    1    1    2    0    0 -0.13068438913E-01 -0.49067559940E-02  0.17468318465E-01  0.50000500000E+01  0.50000000000E+01 0.  0.
     100001    1    1    2    0    0  0.13068438913E-01  0.49067559940E-02 -0.17468318465E-01  0.50000500000E+01  0.50000000000E+01 0. -1.
</event>
<event>
 4    1  0.4897575E-001  0.5000050E+01  0.7818608E-02  0.2136455E+00
        -11   -1    0    0    0    0  0.00000000000E+00  0.00000000000E+00  0.50000499739E+01  0.50000500000E+01  0.51100000000E-03 0.  1.
         11   -1    0    0    0    0 -0.00000000000E+00 -0.00000000000E+00 -0.50000499739E+01  0.50000500000E+01  0.51100000000E-03 0. -1.
     100001    1    1    2    0    0  0.81694712029E-02 -0.19771596936E-01 -0.65073953973E-02  0.50000500000E+01  0.50000000000E+01 0.  1.
     100001    1    1    2    0    0 -0.81694712029E-02  0.19771596936E-01  0.65073953973E-02  0.50000500000E+01  0.50000000000E+01 0.  0.
</event>
<event>
 4    1  0.4897575E-001  0.5000050E+01  0.7818608E-02  0.2136455E+00
        -11   -1    0    0    0    0  0.00000000000E+00  0.00000000000E+00  0.50000499739E+01  0.50000500000E+01  0.51100000000E-03 0.  1.
         11   -1    0    0    0    0 -0.00000000000E+00 -0.00000000000E+00 -0.50000499739E+01  0.50000500000E+01  0.51100000000E-03 0. -1.
     100001    1    1    2    0    0 -0.11526390468E-02 -0.12175235819E-01  0.18719977457E-01  0.50000500000E+01  0.50000000000E+01 0. -1.
     100001    1    1    2    0    0  0.11526390468E-02  0.12175235819E-01 -0.18719977457E-01  0.50000500000E+01  0.50000000000E+01 0. -1.
</event>
<event>
 4    1  0.4897575E-001  0.5000050E+01  0.7818608E-02  0.2136455E+00
        -11   -1    0    0    0    0  0.00000000000E+00  0.00000000000E+00  0.50000499739E+01  0.50000500000E+01  0.51100000000E-03 0.  1.
         11   -1    0    0    0    0 -0.00000000000E+00 -0.00000000000E+00 -0.50000499739E+01  0.50000500000E+01  0.51100000000E-03 0. -1.
     100001    1    1    2    0    0 -0.17758973780E-01  0.12313074496E-01  0.57453935228E-02  0.50000500000E+01  0.50000000000E+01 0.  1.
     100001    1    1    2    0    0  0.17758973780E-01 -0.12313074496E-01 -0.57453935228E-02  0.50000500000E+01  0.50000000000E+01 0. -1.
</event>
<event>
 4    1  0.4897575E-001  0.5000050E+01  0.7818608E-02  0.2136455E+00
        -11   -1    0    0    0    0  0.00000000000E+00  0.00000000000E+00  0.50000499739E+01  0.50000500000E+01  0.51100000000E-03 0.  1.
         11   -1    0    0    0    0 -0.00000000000E+00 -0.00000000000E+00 -0.50000499739E+01  0.50000500000E+01  0.51100000000E-03 0. -1.
     100001    1    1    2    0    0  0.88475850085E-02  0.10997545595E-02 -0.20506420444E-01  0.50000500000E+01  0.50000000000E+01 0.  0.
     100001    1    1    2    0    0 -0.88475850085E-02 -0.10997545595E-02  0.20506420444E-01  0.50000500000E+01  0.50000000000E+01 0.  1.
</event>
<event>
 4    1  0.4897575E-001  0.5000050E+01  0.7818608E-02  0.2136455E+00
        -11   -1    0    0    0    0  0.00000000000E+00  0.00000000000E+00  0.50000499739E+01  0.50000500000E+01  0.51100000000E-03 0.  1.
         11   -1    0    0    0    0 -0.00000000000E+00 -0.00000000000E+00 -0.50000499739E+01  0.50000500000E+01  0.51100000000E-03 0. -1.
     100001    1    1    2    0    0 -0.43839868317E-02  0.18525664692E-01  0.11729574041E-01  0.50000500000E+01  0.50000000000E+01 0.  1.
     100001    1    1    2    0    0  0.43839868317E-02 -0.18525664692E-01 -0.11729574041E-01  0.50000500000E+01  0.50000000000E+01 0. -1.
</event>
<event>
 4    1  0.4897575E-001  0.5000050E+01  0.7818608E-02  0.2136455E+00
        -11   -1    0    0    0    0  0.00000000000E+00  0.00000000000E+00  0.50000499739E+01  0.50000500000E+01  0.51100000000E-03 0.  1.
         11   -1    0    0    0    0 -0.00000000000E+00 -0.00000000000E+00 -0.50000499739E+01  0.50000500000E+01  0.51100000000E-03 0. -1.
     100001    1    1    2    0    0  0.13306566780E-01 -0.28687250432E-02 -0.17740016830E-01  0.50000500000E+01  0.50000000000E+01 0.  1.
     100001    1    1    2    0    0 -0.13306566780E-01  0.28687250432E-02  0.17740016830E-01  0.50000500000E+01  0.50000000000E+01 0.  1.
</event>
<event>
 4    1  0.4897575E-001  0.5000050E+01  0.7818608E-02  0.2136455E+00
        -11   -1    0    0    0    0  0.00000000000E+00  0.00000000000E+00  0.50000499739E+01  0.50000500000E+01  0.51100000000E-03 0. -1.
         11   -1    0    0    0    0 -0.00000000000E+00 -0.00000000000E+00 -0.50000499739E+01  0.50000500000E+01  0.51100000000E-03 0.  1.
     100001    1    1    2    0    0 -0.17666353336E-01  0.68997860145E-02  0.11844636455E-01  0.50000500000E+01  0.50000000000E+01 0.  0.
     100001    1    1    2    0    0  0.17666353336E-01 -0.68997860145E-02 -0.11844636455E-01  0.50000500000E+01  0.50000000000E+01 0.  0.
</event>
<event>
 4    1  0.4897575E-001  0.5000050E+01  0.7818608E-02  0.2136455E+00
        -11   -1    0    0    0    0  0.00000000000E+00  0.00000000000E+00  0.50000499739E+01  0.50000500000E+01  0.51100000000E-03 0.  1.
         11   -1    0    0    0    0 -0.00000000000E+00 -0.00000000000E+00 -0.50000499739E+01  0.50000500000E+01  0.51100000000E-03 0. -1.
     100001    1    1    2    0    0  0.87783179285E-02  0.60644739780E-02  0.19651101489E-01  0.50000500000E+01  0.50000000000E+01 0.  0.
     100001    1    1    2    0    0 -0.87783179285E-02 -0.60644739780E-02 -0.19651101489E-01  0.50000500000E+01  0.50000000000E+01 0. -1.
</event>
<event>
 4    1  0.4897575E-001  0.5000050E+01  0.7818608E-02  0.2136455E+00
        -11   -1    0    0    0    0  0.00000000000E+00  0.00000000000E+00  0.50000499739E+01  0.50000500000E+01  0.51100000000E-03 0.  1.
         11   -1    0    0    0    0 -0.00000000000E+00 -0.00000000000E+00 -0.50000499739E+01  0.50000500000E+01  0.51100000000E-03 0. -1.
     100001    1    1    2    0    0  0.69358682378E-02  0.13865848939E-01  0.16113176750E-01  0.50000500000E+01  0.50000000000E+01 0.  0.
     100001    1    1    2    0    0 -0.69358682378E-02 -0.13865848939E-01 -0.16113176750E-01  0.50000500000E+01  0.50000000000E+01 0.  1.
</event>
<event>
 4    1  0.4897575E-001  0.5000050E+01  0.7818608E-02  0.2136455E+00
        -11   -1    0    0    0    0  0.00000000000E+00  0.00000000000E+00  0.50000499739E+01  0.50000500000E+01  0.51100000000E-03 0.  1.
         11   -1    0    0    0    0 -0.00000000000E+00 -0.00000000000E+00 -0.50000499739E+01  0.50000500000E+01  0.51100000000E-03 0. -1.
     100001    1    1    2    0    0  0.13800503556E-02  0.20537812533E-01 -0.87347705974E-02  0.50000500000E+01  0.50000000000E+01 0.  1.
     100001    1    1    2    0    0 -0.13800503556E-02 -0.20537812533E-01  0.87347705974E-02  0.50000500000E+01  0.50000000000E+01 0.  0.
</event>
<event>
 4    1  0.4897575E-001  0.5000050E+01  0.7818608E-02  0.2136455E+00
        -11   -1    0    0    0    0  0.00000000000E+00  0.00000000000E+00  0.50000499739E+01  0.50000500000E+01  0.51100000000E-03 0.  1.
         11   -1    0    0    0    0 -0.00000000000E+00 -0.00000000000E+00 -0.50000499739E+01  0.50000500000E+01  0.51100000000E-03 0. -1.
     100001    1    1    2    0    0  0.60950231372E-02 -0.21225672370E-01 -0.35105591286E-02  0.50000500000E+01  0.50000000000E+01 0. -1.
     100001    1    1    2    0    0 -0.60950231372E-02  0.21225672370E-01  0.35105591286E-02  0.50000500000E+01  0.50000000000E+01 0.  1.
</event>
<event>
 4    1  0.4897575E-001  0.5000050E+01  0.7818608E-02  0.2136455E+00
        -11   -1    0    0    0    0  0.00000000000E+00  0.00000000000E+00  0.50000499739E+01  0.50000500000E+01  0.51100000000E-03 0. -1.
         11   -1    0    0    0    0 -0.00000000000E+00 -0.00000000000E+00 -0.50000499739E+01  0.50000500000E+01  0.51100000000E-03 0.  1.
     100001    1    1    2    0    0 -0.61567612524E-02  0.21315415961E-01 -0.27838522373E-02  0.50000500000E+01  0.50000000000E+01 0.  0.
     100001    1    1    2    0    0  0.61567612524E-02 -0.21315415961E-01  0.27838522373E-02  0.50000500000E+01  0.50000000000E+01 0.  1.
</event>
<event>
 4    1  0.4897575E-001  0.5000050E+01  0.7818608E-02  0.2136455E+00
        -11   -1    0    0    0    0  0.00000000000E+00  0.00000000000E+00  0.50000499739E+01  0.50000500000E+01  0.51100000000E-03 0.  1.
         11   -1    0    0    0    0 -0.00000000000E+00 -0.00000000000E+00 -0.50000499739E+01  0.50000500000E+01  0.51100000000E-03 0. -1.
     100001    1    1    2    0    0 -0.10056826470E-01  0.44326019258E-02  0.19473437846E-01  0.50000500000E+01  0.50000000000E+01 0.  0.
     100001    1    1    2    0    0  0.10056826470E-01 -0.44326019258E-02 -0.19473437846E-01  0.50000500000E+01  0.50000000000E+01 0. -1.
</event>
<event>
 4    1  0.4897575E-001  0.5000050E+01  0.7818608E-02  0.2136455E+00
        -11   -1    0    0    0    0  0.00000000000E+00  0.00000000000E+00  0.50000499739E+01  0.50000500000E+01  0.51100000000E-03 0.  1.
         11   -1    0    0    0    0 -0.00000000000E+00 -0.00000000000E+00 -0.50000499739E+01  0.50000500000E+01  0.51100000000E-03 0. -1.
     100001    1    1    2    0    0 -0.21122369793E-02 -0.15712902094E-01  0.15768502235E-01  0.50000500000E+01  0.50000000000E+01 0.  1.
     100001    1    1    2    0    0  0.21122369793E-02  0.15712902094E-01 -0.15768502235E-01  0.50000500000E+01  0.50000000000E+01 0. -1.
</event>
<event>
 4    1  0.4897575E-001  0.5000050E+01  0.7818608E-02  0.2136455E+00
        -11   -1    0    0    0    0  0.00000000000E+00  0.00000000000E+00  0.50000499739E+01  0.50000500000E+01  0.51100000000E-03 0.  1.
         11   -1    0    0    0    0 -0.00000000000E+00 -0.00000000000E+00 -0.50000499739E+01  0.50000500000E+01  0.51100000000E-03 0. -1.
     100001    1    1    2    0    0  0.14346806458E-01  0.82215664021E-02  0.15052491168E-01  0.50000500000E+01  0.50000000000E+01 0.  1.
     100001    1    1    2    0    0 -0.14346806458E-01 -0.82215664021E-02 -0.15052491168E-01  0.50000500000E+01  0.50000000000E+01 0.  0.
</event>
<event>
 4    1  0.4897575E-001  0.5000050E+01  0.7818608E-02  0.2136455E+00
        -11   -1    0    0    0    0  0.00000000000E+00  0.00000000000E+00  0.50000499739E+01  0.50000500000E+01  0.51100000000E-03 0. -1.
         11   -1    0    0    0    0 -0.00000000000E+00 -0.00000000000E+00 -0.50000499739E+01  0.50000500000E+01  0.51100000000E-03 0.  1.
     100001    1    1    2    0    0  0.87418782229E-02 -0.17683587201E-01 -0.10529615798E-01  0.50000500000E+01  0.50000000000E+01 0. -1.
     100001    1    1    2    0    0 -0.87418782229E-02  0.17683587201E-01  0.10529615798E-01  0.50000500000E+01  0.50000000000E+01 0.  1.
</event>
<event>
 4    1  0.4897575E-001  0.5000050E+01  0.7818608E-02  0.2136455E+00
        -11   -1    0    0    0    0  0.00000000000E+00  0.00000000000E+00  0.50000499739E+01  0.50000500000E+01  0.51100000000E-03 0.  1.
         11   -1    0    0    0    0 -0.00000000000E+00 -0.00000000000E+00 -0.50000499739E+01  0.50000500000E+01  0.51100000000E-03 0. -1.
     100001    1    1    2    0    0  0.43021019923E-02 -0.87164606511E-02 -0.20137470848E-01  0.50000500000E+01  0.50000000000E+01 0.  0.
     100001    1    1    2    0    0 -0.43021019923E-02  0.87164606511E-02  0.20137470848E-01  0.50000500000E+01  0.50000000000E+01 0.  1.
</event>
<event>
 4    1  0.4897575E-001  0.5000050E+01  0.7818608E-02  0.2136455E+00
        -11   -1    0    0    0    0  0.00000000000E+00  0.00000000000E+00  0.50000499739E+01  0.50000500000E+01  0.51100000000E-03 0.  1.
         11   -1    0    0    0    0 -0.00000000000E+00 -0.00000000000E+00 -0.50000499739E+01  0.50000500000E+01  0.51100000000E-03 0. -1.
     100001    1    1    2    0    0  0.19294498657E-01  0.19132556847E-02  0.11138414350E-01  0.50000500000E+01  0.50000000000E+01 0. -1.
     100001    1    1    2    0    0 -0.19294498657E-01 -0.19132556847E-02 -0.11138414350E-01  0.50000500000E+01  0.50000000000E+01 0. -1.
</event>
<event>
 4    1  0.4897575E-001  0.5000050E+01  0.7818608E-02  0.2136455E+00
        -11   -1    0    0    0    0  0.00000000000E+00  0.00000000000E+00  0.50000499739E+01  0.50000500000E+01  0.51100000000E-03 0.  1.
         11   -1    0    0    0    0 -0.00000000000E+00 -0.00000000000E+00 -0.50000499739E+01  0.50000500000E+01  0.51100000000E-03 0. -1.
     100001    1    1    2    0    0  0.17127321561E-01 -0.14170810757E-01 -0.24177424647E-02  0.50000500000E+01  0.50000000000E+01 0.  1.
     100001    1    1    2    0    0 -0.17127321561E-01  0.14170810757E-01  0.24177424647E-02  0.50000500000E+01  0.50000000000E+01 0. -1.
</event>
<event>
 4    1  0.4897575E-001  0.5000050E+01  0.7818608E-02  0.2136455E+00
        -11   -1    0    0    0    0  0.00000000000E+00  0.00000000000E+00  0.50000499739E+01  0.50000500000E+01  0.51100000000E-03 0.  1.
         11   -1    0    0    0    0 -0.00000000000E+00 -0.00000000000E+00 -0.50000499739E+01  0.50000500000E+01  0.51100000000E-03 0. -1.
     100001    1    1    2    0    0 -0.13331311328E-01  0.13805916984E-01  0.11474985600E-01  0.50000500000E+01  0.50000000000E+01 0.  1.
     100001    1    1    2    0    0  0.13331311328E-01 -0.13805916984E-01 -0.11474985600E-01  0.50000500000E+01  0.50000000000E+01 0. -1.
</event>
<event>
 4    1  0.4897575E-001  0.5000050E+01  0.7818608E-02  0.2136455E+00
        -11   -1    0    0    0    0  0.00000000000E+00  0.00000000000E+00  0.50000499739E+01  0.50000500000E+01  0.51100000000E-03 0. -1.
         11   -1    0    0    0    0 -0.00000000000E+00 -0.00000000000E+00 -0.50000499739E+01  0.50000500000E+01  0.51100000000E-03 0.  1.
     100001    1    1    2    0    0  0.31669038793E-02  0.15708670382E-01  0.15595220250E-01  0.50000500000E+01  0.50000000000E+01 0.  0.
     100001    1    1    2    0    0 -0.31669038793E-02 -0.15708670382E-01 -0.15595220250E-01  0.50000500000E+01  0.50000000000E+01 0.  0.
</event>
<event>
 4    1  0.4897575E-001  0.5000050E+01  0.7818608E-02  0.2136455E+00
        -11   -1    0    0    0    0  0.00000000000E+00  0.00000000000E+00  0.50000499739E+01  0.50000500000E+01  0.51100000000E-03 0. -1.
         11   -1    0    0    0    0 -0.00000000000E+00 -0.00000000000E+00 -0.50000499739E+01  0.50000500000E+01  0.51100000000E-03 0.  1.
     100001    1    1    2    0    0 -0.84853880065E-02 -0.17937167517E-01 -0.10308186642E-01  0.50000500000E+01  0.50000000000E+01 0.  1.
     100001    1    1    2    0    0  0.84853880065E-02  0.17937167517E-01  0.10308186642E-01  0.50000500000E+01  0.50000000000E+01 0. -1.
</event>
<event>
 4    1  0.4897575E-001  0.5000050E+01  0.7818608E-02  0.2136455E+00
        -11   -1    0    0    0    0  0.00000000000E+00  0.00000000000E+00  0.50000499739E+01  0.50000500000E+01  0.51100000000E-03 0.  1.
         11   -1    0    0    0    0 -0.00000000000E+00 -0.00000000000E+00 -0.50000499739E+01  0.50000500000E+01  0.51100000000E-03 0. -1.
     100001    1    1    2    0    0 -0.16851318935E-01 -0.66241139632E-03  0.14683213589E-01  0.50000500000E+01  0.50000000000E+01 0.  0.
     100001    1    1    2    0    0  0.16851318935E-01  0.66241139632E-03 -0.14683213589E-01  0.50000500000E+01  0.50000000000E+01 0. -1.
</event>
<event>
 4    1  0.4897575E-001  0.5000050E+01  0.7818608E-02  0.2136455E+00
        -11   -1    0    0    0    0  0.00000000000E+00  0.00000000000E+00  0.50000499739E+01  0.50000500000E+01  0.51100000000E-03 0. -1.
         11   -1    0    0    0    0 -0.00000000000E+00 -0.00000000000E+00 -0.50000499739E+01  0.50000500000E+01  0.51100000000E-03 0.  1.
     100001    1    1    2    0    0 -0.13281334366E-01 -0.16643400392E-01 -0.68268499940E-02  0.50000500000E+01  0.50000000000E+01 0.  0.
     100001    1    1    2    0    0  0.13281334366E-01  0.16643400392E-01  0.68268499940E-02  0.50000500000E+01  0.50000000000E+01 0.  0.
</event>
<event>
 4    1  0.4897575E-001  0.5000050E+01  0.7818608E-02  0.2136455E+00
        -11   -1    0    0    0    0  0.00000000000E+00  0.00000000000E+00  0.50000499739E+01  0.50000500000E+01  0.51100000000E-03 0.  1.
         11   -1    0    0    0    0 -0.00000000000E+00 -0.00000000000E+00 -0.50000499739E+01  0.50000500000E+01  0.51100000000E-03 0. -1.
     100001    1    1    2    0    0  0.20009318059E-01  0.88054184880E-02  0.47004570040E-02  0.50000500000E+01  0.50000000000E+01 0.  1.
     100001    1    1    2    0    0 -0.20009318059E-01 -0.88054184880E-02 -0.47004570040E-02  0.50000500000E+01  0.50000000000E+01 0. -1.
</event>
<event>
 4    1  0.4897575E-001  0.5000050E+01  0.7818608E-02  0.2136455E+00
        -11   -1    0    0    0    0  0.00000000000E+00  0.00000000000E+00  0.50000499739E+01  0.50000500000E+01  0.51100000000E-03 0.  1.
         11   -1    0    0    0    0 -0.00000000000E+00 -0.00000000000E+00 -0.50000499739E+01  0.50000500000E+01  0.51100000000E-03 0. -1.
     100001    1    1    2    0    0 -0.11190150293E-02  0.17206916314E-01  0.14236303464E-01  0.50000500000E+01  0.50000000000E+01 0.  1.
     100001    1    1    2    0    0  0.11190150293E-02 -0.17206916314E-01 -0.14236303464E-01  0.50000500000E+01  0.50000000000E+01 0. -1.
</event>
<event>
 4    1  0.4897575E-001  0.5000050E+01  0.7818608E-02  0.2136455E+00
        -11   -1    0    0    0    0  0.00000000000E+00  0.00000000000E+00  0.50000499739E+01  0.50000500000E+01  0.51100000000E-03 0.  1.
         11   -1    0    0    0    0 -0.00000000000E+00 -0.00000000000E+00 -0.50000499739E+01  0.50000500000E+01  0.51100000000E-03 0. -1.
     100001    1    1    2    0    0  0.11215052968E-01 -0.19840717207E-02 -0.19242883004E-01  0.50000500000E+01  0.50000000000E+01 0. -1.
     100001    1    1    2    0    0 -0.11215052968E-01  0.19840717207E-02  0.19242883004E-01  0.50000500000E+01  0.50000000000E+01 0.  1.
</event>
<event>
 4    1  0.4897575E-001  0.5000050E+01  0.7818608E-02  0.2136455E+00
        -11   -1    0    0    0    0  0.00000000000E+00  0.00000000000E+00  0.50000499739E+01  0.50000500000E+01  0.51100000000E-03 0.  1.
         11   -1    0    0    0    0 -0.00000000000E+00 -0.00000000000E+00 -0.50000499739E+01  0.50000500000E+01  0.51100000000E-03 0. -1.
     100001    1    1    2    0    0  0.16615637652E-01  0.75135276562E-02 -0.12941019572E-01  0.50000500000E+01  0.50000000000E+01 0. -1.
     100001    1    1    2    0    0 -0.16615637652E-01 -0.75135276562E-02  0.12941019572E-01  0.50000500000E+01  0.50000000000E+01 0. -1.
</event>
<event>
 4    1  0.4897575E-001  0.5000050E+01  0.7818608E-02  0.2136455E+00
        -11   -1    0    0    0    0  0.00000000000E+00  0.00000000000E+00  0.50000499739E+01  0.50000500000E+01  0.51100000000E-03 0. -1.
         11   -1    0    0    0    0 -0.00000000000E+00 -0.00000000000E+00 -0.50000499739E+01  0.50000500000E+01  0.51100000000E-03 0.  1.
     100001    1    1    2    0    0  0.17549162486E-01  0.13383759275E-01 -0.35922672093E-02  0.50000500000E+01  0.50000000000E+01 0. -1.
     100001    1    1    2    0    0 -0.17549162486E-01 -0.13383759275E-01  0.35922672093E-02  0.50000500000E+01  0.50000000000E+01 0.  0.
</event>
<event>
 4    1  0.4897575E-001  0.5000050E+01  0.7818608E-02  0.2136455E+00
        -11   -1    0    0    0    0  0.00000000000E+00  0.00000000000E+00  0.50000499739E+01  0.50000500000E+01  0.51100000000E-03 0. -1.
         11   -1    0    0    0    0 -0.00000000000E+00 -0.00000000000E+00 -0.50000499739E+01  0.50000500000E+01  0.51100000000E-03 0.  1.
     100001    1    1    2    0    0 -0.90304941632E-02  0.56191557226E-02 -0.19669208528E-01  0.50000500000E+01  0.50000000000E+01 0.  1.
     100001    1    1    2    0    0  0.90304941632E-02 -0.56191557226E-02  0.19669208528E-01  0.50000500000E+01  0.50000000000E+01 0.  0.
</event>
<event>
 4    1  0.4897575E-001  0.5000050E+01  0.7818608E-02  0.2136455E+00
        -11   -1    0    0    0    0  0.00000000000E+00  0.00000000000E+00  0.50000499739E+01  0.50000500000E+01  0.51100000000E-03 0. -1.
         11   -1    0    0    0    0 -0.00000000000E+00 -0.00000000000E+00 -0.50000499739E+01  0.50000500000E+01  0.51100000000E-03 0.  1.
     100001    1    1    2    0    0  0.44182154484E-02 -0.20761582209E-01  0.70312571013E-02  0.50000500000E+01  0.50000000000E+01 0.  1.
     100001    1    1    2    0    0 -0.44182154484E-02  0.20761582209E-01 -0.70312571013E-02  0.50000500000E+01  0.50000000000E+01 0. -1.
</event>
<event>
 4    1  0.4897575E-001  0.5000050E+01  0.7818608E-02  0.2136455E+00
        -11   -1    0    0    0    0  0.00000000000E+00  0.00000000000E+00  0.50000499739E+01  0.50000500000E+01  0.51100000000E-03 0. -1.
         11   -1    0    0    0    0 -0.00000000000E+00 -0.00000000000E+00 -0.50000499739E+01  0.50000500000E+01  0.51100000000E-03 0.  1.
     100001    1    1    2    0    0  0.20314522123E-01  0.88420885330E-02  0.30232699664E-02  0.50000500000E+01  0.50000000000E+01 0.  0.
     100001    1    1    2    0    0 -0.20314522123E-01 -0.88420885330E-02 -0.30232699664E-02  0.50000500000E+01  0.50000000000E+01 0.  1.
</event>
<event>
 4    1  0.4897575E-001  0.5000050E+01  0.7818608E-02  0.2136455E+00
        -11   -1    0    0    0    0  0.00000000000E+00  0.00000000000E+00  0.50000499739E+01  0.50000500000E+01  0.51100000000E-03 0. -1.
         11   -1    0    0    0    0 -0.00000000000E+00 -0.00000000000E+00 -0.50000499739E+01  0.50000500000E+01  0.51100000000E-03 0.  1.
     100001    1    1    2    0    0  0.20502367984E-01 -0.75674991413E-02  0.47316343659E-02  0.50000500000E+01  0.50000000000E+01 0.  0.
     100001    1    1    2    0    0 -0.20502367984E-01  0.75674991413E-02 -0.47316343659E-02  0.50000500000E+01  0.50000000000E+01 0. -1.
</event>
<event>
 4    1  0.4897575E-001  0.5000050E+01  0.7818608E-02  0.2136455E+00
        -11   -1    0    0    0    0  0.00000000000E+00  0.00000000000E+00  0.50000499739E+01  0.50000500000E+01  0.51100000000E-03 0.  1.
         11   -1    0    0    0    0 -0.00000000000E+00 -0.00000000000E+00 -0.50000499739E+01  0.50000500000E+01  0.51100000000E-03 0. -1.
     100001    1    1    2    0    0  0.11931283018E-01 -0.68394242894E-02  0.17631484932E-01  0.50000500000E+01  0.50000000000E+01 0.  1.
     100001    1    1    2    0    0 -0.11931283018E-01  0.68394242894E-02 -0.17631484932E-01  0.50000500000E+01  0.50000000000E+01 0.  0.
</event>
<event>
 4    1  0.4897575E-001  0.5000050E+01  0.7818608E-02  0.2136455E+00
        -11   -1    0    0    0    0  0.00000000000E+00  0.00000000000E+00  0.50000499739E+01  0.50000500000E+01  0.51100000000E-03 0.  1.
         11   -1    0    0    0    0 -0.00000000000E+00 -0.00000000000E+00 -0.50000499739E+01  0.50000500000E+01  0.51100000000E-03 0. -1.
     100001    1    1    2    0    0  0.12835575925E-01 -0.40996276598E-03 -0.18305256655E-01  0.50000500000E+01  0.50000000000E+01 0.  0.
     100001    1    1    2    0    0 -0.12835575925E-01  0.40996276598E-03  0.18305256655E-01  0.50000500000E+01  0.50000000000E+01 0.  1.
</event>
<event>
 4    1  0.4897575E-001  0.5000050E+01  0.7818608E-02  0.2136455E+00
        -11   -1    0    0    0    0  0.00000000000E+00  0.00000000000E+00  0.50000499739E+01  0.50000500000E+01  0.51100000000E-03 0.  1.
         11   -1    0    0    0    0 -0.00000000000E+00 -0.00000000000E+00 -0.50000499739E+01  0.50000500000E+01  0.51100000000E-03 0. -1.
     100001    1    1    2    0    0  0.18305986352E-01 -0.11720666401E-01 -0.52458881793E-02  0.50000500000E+01  0.50000000000E+01 0. -1.
     100001    1    1    2    0    0 -0.18305986352E-01  0.11720666401E-01  0.52458881793E-02  0.50000500000E+01  0.50000000000E+01 0.  0.
</event>
<event>
 4    1  0.4897575E-001  0.5000050E+01  0.7818608E-02  0.2136455E+00
        -11   -1    0    0    0    0  0.00000000000E+00  0.00000000000E+00  0.50000499739E+01  0.50000500000E+01  0.51100000000E-03 0.  1.
         11   -1    0    0    0    0 -0.00000000000E+00 -0.00000000000E+00 -0.50000499739E+01  0.50000500000E+01  0.51100000000E-03 0. -1.
     100001    1    1    2    0    0  0.91156197263E-02 -0.95777392919E-02 -0.18032606219E-01  0.50000500000E+01  0.50000000000E+01 0. -1.
     100001    1    1    2    0    0 -0.91156197263E-02  0.95777392919E-02  0.18032606219E-01  0.50000500000E+01  0.50000000000E+01 0.  0.
</event>
<event>
 4    1  0.4897575E-001  0.5000050E+01  0.7818608E-02  0.2136455E+00
        -11   -1    0    0    0    0  0.00000000000E+00  0.00000000000E+00  0.50000499739E+01  0.50000500000E+01  0.51100000000E-03 0. -1.
         11   -1    0    0    0    0 -0.00000000000E+00 -0.00000000000E+00 -0.50000499739E+01  0.50000500000E+01  0.51100000000E-03 0.  1.
     100001    1    1    2    0    0 -0.73885817484E-02  0.93911053491E-02 -0.18900224868E-01  0.50000500000E+01  0.50000000000E+01 0.  1.
     100001    1    1    2    0    0  0.73885817484E-02 -0.93911053491E-02  0.18900224868E-01  0.50000500000E+01  0.50000000000E+01 0.  0.
</event>
<event>
 4    1  0.4897575E-001  0.5000050E+01  0.7818608E-02  0.2136455E+00
        -11   -1    0    0    0    0  0.00000000000E+00  0.00000000000E+00  0.50000499739E+01  0.50000500000E+01  0.51100000000E-03 0.  1.
         11   -1    0    0    0    0 -0.00000000000E+00 -0.00000000000E+00 -0.50000499739E+01  0.50000500000E+01  0.51100000000E-03 0. -1.
     100001    1    1    2    0    0 -0.18862656602E-01 -0.11228063430E-01 -0.42583186281E-02  0.50000500000E+01  0.50000000000E+01 0.  0.
     100001    1    1    2    0    0  0.18862656602E-01  0.11228063430E-01  0.42583186281E-02  0.50000500000E+01  0.50000000000E+01 0.  0.
</event>
<event>
 4    1  0.4897575E-001  0.5000050E+01  0.7818608E-02  0.2136455E+00
        -11   -1    0    0    0    0  0.00000000000E+00  0.00000000000E+00  0.50000499739E+01  0.50000500000E+01  0.51100000000E-03 0. -1.
         11   -1    0    0    0    0 -0.00000000000E+00 -0.00000000000E+00 -0.50000499739E+01  0.50000500000E+01  0.51100000000E-03 0.  1.
     100001    1    1    2    0    0 -0.15035023785E-01  0.82980144432E-02  0.14321086414E-01  0.50000500000E+01  0.50000000000E+01 0. -1.
     100001    1    1    2    0    0  0.15035023785E-01 -0.82980144432E-02 -0.14321086414E-01  0.50000500000E+01  0.50000000000E+01 0.  1.
</event>
<event>
 4    1  0.4897575E-001  0.5000050E+01  0.7818608E-02  0.2136455E+00
        -11   -1    0    0    0    0  0.00000000000E+00  0.00000000000E+00  0.50000499739E+01  0.50000500000E+01  0.51100000000E-03 0.  1.
         11   -1    0    0    0    0 -0.00000000000E+00 -0.00000000000E+00 -0.50000499739E+01  0.50000500000E+01  0.51100000000E-03 0. -1.
     100001    1    1    2    0    0 -0.13774702484E-01  0.29838416030E-02  0.17359630202E-01  0.50000500000E+01  0.50000000000E+01 0.  1.
     100001    1    1    2    0    0  0.13774702484E-01 -0.29838416030E-02 -0.17359630202E-01  0.50000500000E+01  0.50000000000E+01 0.  1.
</event>
<event>
 4    1  0.4897575E-001  0.5000050E+01  0.7818608E-02  0.2136455E+00
        -11   -1    0    0    0    0  0.00000000000E+00  0.00000000000E+00  0.50000499739E+01  0.50000500000E+01  0.51100000000E-03 0. -1.
         11   -1    0    0    0    0 -0.00000000000E+00 -0.00000000000E+00 -0.50000499739E+01  0.50000500000E+01  0.51100000000E-03 0.  1.
     100001    1    1    2    0    0  0.22029197596E-01  0.37289176463E-02 -0.90118059776E-03  0.50000500000E+01  0.50000000000E+01 0.  1.
     100001    1    1    2    0    0 -0.22029197596E-01 -0.37289176463E-02  0.90118059776E-03  0.50000500000E+01  0.50000000000E+01 0.  0.
</event>
<event>
 4    1  0.4897575E-001  0.5000050E+01  0.7818608E-02  0.2136455E+00
        -11   -1    0    0    0    0  0.00000000000E+00  0.00000000000E+00  0.50000499739E+01  0.50000500000E+01  0.51100000000E-03 0. -1.
         11   -1    0    0    0    0 -0.00000000000E+00 -0.00000000000E+00 -0.50000499739E+01  0.50000500000E+01  0.51100000000E-03 0.  1.
     100001    1    1    2    0    0 -0.39682368961E-02  0.63974580994E-02 -0.21055358601E-01  0.50000500000E+01  0.50000000000E+01 0.  1.
     100001    1    1    2    0    0  0.39682368961E-02 -0.63974580994E-02  0.21055358601E-01  0.50000500000E+01  0.50000000000E+01 0.  0.
</event>
<event>
 4    1  0.4897575E-001  0.5000050E+01  0.7818608E-02  0.2136455E+00
        -11   -1    0    0    0    0  0.00000000000E+00  0.00000000000E+00  0.50000499739E+01  0.50000500000E+01  0.51100000000E-03 0. -1.
         11   -1    0    0    0    0 -0.00000000000E+00 -0.00000000000E+00 -0.50000499739E+01  0.50000500000E+01  0.51100000000E-03 0.  1.
     100001    1    1    2    0    0  0.19516521437E-01 -0.88229192400E-02  0.64237050905E-02  0.50000500000E+01  0.50000000000E+01 0.  0.
     100001    1    1    2    0    0 -0.19516521437E-01  0.88229192400E-02 -0.64237050905E-02  0.50000500000E+01  0.50000000000E+01 0.  1.
</event>
<event>
 4    1  0.4897575E-001  0.5000050E+01  0.7818608E-02  0.2136455E+00
        -11   -1    0    0    0    0  0.00000000000E+00  0.00000000000E+00  0.50000499739E+01  0.50000500000E+01  0.51100000000E-03 0. -1.
         11   -1    0    0    0    0 -0.00000000000E+00 -0.00000000000E+00 -0.50000499739E+01  0.50000500000E+01  0.51100000000E-03 0.  1.
     100001    1    1    2    0    0 -0.49594612611E-02 -0.20709642402E-01 -0.68203339772E-02  0.50000500000E+01  0.50000000000E+01 0. -1.
     100001    1    1    2    0    0  0.49594612611E-02  0.20709642402E-01  0.68203339772E-02  0.50000500000E+01  0.50000000000E+01 0.  1.
</event>
<event>
 4    1  0.4897575E-001  0.5000050E+01  0.7818608E-02  0.2136455E+00
        -11   -1    0    0    0    0  0.00000000000E+00  0.00000000000E+00  0.50000499739E+01  0.50000500000E+01  0.51100000000E-03 0.  1.
         11   -1    0    0    0    0 -0.00000000000E+00 -0.00000000000E+00 -0.50000499739E+01  0.50000500000E+01  0.51100000000E-03 0. -1.
     100001    1    1    2    0    0  0.24714183199E-02  0.69497559775E-02 -0.21109132700E-01  0.50000500000E+01  0.50000000000E+01 0. -1.
     100001    1    1    2    0    0 -0.24714183199E-02 -0.69497559775E-02  0.21109132700E-01  0.50000500000E+01  0.50000000000E+01 0.  0.
</event>
<event>
 4    1  0.4897575E-001  0.5000050E+01  0.7818608E-02  0.2136455E+00
        -11   -1    0    0    0    0  0.00000000000E+00  0.00000000000E+00  0.50000499739E+01  0.50000500000E+01  0.51100000000E-03 0.  1.
         11   -1    0    0    0    0 -0.00000000000E+00 -0.00000000000E+00 -0.50000499739E+01  0.50000500000E+01  0.51100000000E-03 0. -1.
     100001    1    1    2    0    0  0.14316753702E-01  0.17345833929E-02 -0.17088718030E-01  0.50000500000E+01  0.50000000000E+01 0.  0.
     100001    1    1    2    0    0 -0.14316753702E-01 -0.17345833929E-02  0.17088718030E-01  0.50000500000E+01  0.50000000000E+01 0.  0.
</event>
<event>
 4    1  0.4897575E-001  0.5000050E+01  0.7818608E-02  0.2136455E+00
        -11   -1    0    0    0    0  0.00000000000E+00  0.00000000000E+00  0.50000499739E+01  0.50000500000E+01  0.51100000000E-03 0.  1.
         11   -1    0    0    0    0 -0.00000000000E+00 -0.00000000000E+00 -0.50000499739E+01  0.50000500000E+01  0.51100000000E-03 0. -1.
     100001    1    1    2    0    0 -0.18285394858E-01  0.12774162027E-01 -0.15708658127E-02  0.50000500000E+01  0.50000000000E+01 0. -1.
     100001    1    1    2    0    0  0.18285394858E-01 -0.12774162027E-01  0.15708658127E-02  0.50000500000E+01  0.50000000000E+01 0.  1.
</event>
<event>
 4    1  0.4897575E-001  0.5000050E+01  0.7818608E-02  0.2136455E+00
        -11   -1    0    0    0    0  0.00000000000E+00  0.00000000000E+00  0.50000499739E+01  0.50000500000E+01  0.51100000000E-03 0. -1.
         11   -1    0    0    0    0 -0.00000000000E+00 -0.00000000000E+00 -0.50000499739E+01  0.50000500000E+01  0.51100000000E-03 0.  1.
     100001    1    1    2    0    0  0.13817949519E-01  0.34220760197E-02  0.17244018291E-01  0.50000500000E+01  0.50000000000E+01 0.  0.
     100001    1    1    2    0    0 -0.13817949519E-01 -0.34220760197E-02 -0.17244018291E-01  0.50000500000E+01  0.50000000000E+01 0.  0.
</event>
<event>
 4    1  0.4897575E-001  0.5000050E+01  0.7818608E-02  0.2136455E+00
        -11   -1    0    0    0    0  0.00000000000E+00  0.00000000000E+00  0.50000499739E+01  0.50000500000E+01  0.51100000000E-03 0.  1.
         11   -1    0    0    0    0 -0.00000000000E+00 -0.00000000000E+00 -0.50000499739E+01  0.50000500000E+01  0.51100000000E-03 0. -1.
     100001    1    1    2    0    0 -0.72521856693E-03 -0.98338407939E-02  0.20069183672E-01  0.50000500000E+01  0.50000000000E+01 0.  1.
     100001    1    1    2    0    0  0.72521856693E-03  0.98338407939E-02 -0.20069183672E-01  0.50000500000E+01  0.50000000000E+01 0.  0.
</event>
<event>
 4    1  0.4897575E-001  0.5000050E+01  0.7818608E-02  0.2136455E+00
        -11   -1    0    0    0    0  0.00000000000E+00  0.00000000000E+00  0.50000499739E+01  0.50000500000E+01  0.51100000000E-03 0. -1.
         11   -1    0    0    0    0 -0.00000000000E+00 -0.00000000000E+00 -0.50000499739E+01  0.50000500000E+01  0.51100000000E-03 0.  1.
     100001    1    1    2    0    0 -0.17949946704E-01 -0.58079161885E-02  0.12002917265E-01  0.50000500000E+01  0.50000000000E+01 0.  0.
     100001    1    1    2    0    0  0.17949946704E-01  0.58079161885E-02 -0.12002917265E-01  0.50000500000E+01  0.50000000000E+01 0.  0.
</event>
<event>
 4    1  0.4897575E-001  0.5000050E+01  0.7818608E-02  0.2136455E+00
        -11   -1    0    0    0    0  0.00000000000E+00  0.00000000000E+00  0.50000499739E+01  0.50000500000E+01  0.51100000000E-03 0.  1.
         11   -1    0    0    0    0 -0.00000000000E+00 -0.00000000000E+00 -0.50000499739E+01  0.50000500000E+01  0.51100000000E-03 0. -1.
     100001    1    1    2    0    0  0.12910491653E-02  0.30725596635E-02  0.22110971692E-01  0.50000500000E+01  0.50000000000E+01 0.  1.
     100001    1    1    2    0    0 -0.12910491653E-02 -0.30725596635E-02 -0.22110971692E-01  0.50000500000E+01  0.50000000000E+01 0.  0.
</event>
<event>
 4    1  0.4897575E-001  0.5000050E+01  0.7818608E-02  0.2136455E+00
        -11   -1    0    0    0    0  0.00000000000E+00  0.00000000000E+00  0.50000499739E+01  0.50000500000E+01  0.51100000000E-03 0. -1.
         11   -1    0    0    0    0 -0.00000000000E+00 -0.00000000000E+00 -0.50000499739E+01  0.50000500000E+01  0.51100000000E-03 0.  1.
     100001    1    1    2    0    0 -0.17086252659E-01  0.13188993482E-01  0.58406267631E-02  0.50000500000E+01  0.50000000000E+01 0.  1.
     100001    1    1    2    0    0  0.17086252659E-01 -0.13188993482E-01 -0.58406267631E-02  0.50000500000E+01  0.50000000000E+01 0. -1.
</event>
<event>
 4    1  0.4897575E-001  0.5000050E+01  0.7818608E-02  0.2136455E+00
        -11   -1    0    0    0    0  0.00000000000E+00  0.00000000000E+00  0.50000499739E+01  0.50000500000E+01  0.51100000000E-03 0.  1.
         11   -1    0    0    0    0 -0.00000000000E+00 -0.00000000000E+00 -0.50000499739E+01  0.50000500000E+01  0.51100000000E-03 0. -1.
     100001    1    1    2    0    0 -0.19966033068E-01  0.65129187419E-02 -0.76773636733E-02  0.50000500000E+01  0.50000000000E+01 0. -1.
     100001    1    1    2    0    0  0.19966033068E-01 -0.65129187419E-02  0.76773636733E-02  0.50000500000E+01  0.50000000000E+01 0.  1.
</event>
<event>
 4    1  0.4897575E-001  0.5000050E+01  0.7818608E-02  0.2136455E+00
        -11   -1    0    0    0    0  0.00000000000E+00  0.00000000000E+00  0.50000499739E+01  0.50000500000E+01  0.51100000000E-03 0.  1.
         11   -1    0    0    0    0 -0.00000000000E+00 -0.00000000000E+00 -0.50000499739E+01  0.50000500000E+01  0.51100000000E-03 0. -1.
     100001    1    1    2    0    0 -0.94050820693E-02  0.16923917188E-01 -0.11186060892E-01  0.50000500000E+01  0.50000000000E+01 0. -1.
     100001    1    1    2    0    0  0.94050820693E-02 -0.16923917188E-01  0.11186060892E-01  0.50000500000E+01  0.50000000000E+01 0.  1.
</event>
<event>
 4    1  0.4897575E-001  0.5000050E+01  0.7818608E-02  0.2136455E+00
        -11   -1    0    0    0    0  0.00000000000E+00  0.00000000000E+00  0.50000499739E+01  0.50000500000E+01  0.51100000000E-03 0. -1.
         11   -1    0    0    0    0 -0.00000000000E+00 -0.00000000000E+00 -0.50000499739E+01  0.50000500000E+01  0.51100000000E-03 0.  1.
     100001    1    1    2    0    0 -0.10519699319E-01  0.19186733062E-01 -0.46051819337E-02  0.50000500000E+01  0.50000000000E+01 0.  1.
     100001    1    1    2    0    0  0.10519699319E-01 -0.19186733062E-01  0.46051819337E-02  0.50000500000E+01  0.50000000000E+01 0. -1.
</event>
<event>
 4    1  0.4897575E-001  0.5000050E+01  0.7818608E-02  0.2136455E+00
        -11   -1    0    0    0    0  0.00000000000E+00  0.00000000000E+00  0.50000499739E+01  0.50000500000E+01  0.51100000000E-03 0. -1.
         11   -1    0    0    0    0 -0.00000000000E+00 -0.00000000000E+00 -0.50000499739E+01  0.50000500000E+01  0.51100000000E-03 0.  1.
     100001    1    1    2    0    0  0.85443226501E-02 -0.14417451474E-01 -0.14803180180E-01  0.50000500000E+01  0.50000000000E+01 0.  1.
     100001    1    1    2    0    0 -0.85443226501E-02  0.14417451474E-01  0.14803180180E-01  0.50000500000E+01  0.50000000000E+01 0. -1.
</event>
<event>
 4    1  0.4897575E-001  0.5000050E+01  0.7818608E-02  0.2136455E+00
        -11   -1    0    0    0    0  0.00000000000E+00  0.00000000000E+00  0.50000499739E+01  0.50000500000E+01  0.51100000000E-03 0. -1.
         11   -1    0    0    0    0 -0.00000000000E+00 -0.00000000000E+00 -0.50000499739E+01  0.50000500000E+01  0.51100000000E-03 0.  1.
     100001    1    1    2    0    0  0.20092349635E-01  0.36453005895E-02  0.91110795062E-02  0.50000500000E+01  0.50000000000E+01 0.  1.
     100001    1    1    2    0    0 -0.20092349635E-01 -0.36453005895E-02 -0.91110795062E-02  0.50000500000E+01  0.50000000000E+01 0.  0.
</event>
<event>
 4    1  0.4897575E-001  0.5000050E+01  0.7818608E-02  0.2136455E+00
        -11   -1    0    0    0    0  0.00000000000E+00  0.00000000000E+00  0.50000499739E+01  0.50000500000E+01  0.51100000000E-03 0. -1.
         11   -1    0    0    0    0 -0.00000000000E+00 -0.00000000000E+00 -0.50000499739E+01  0.50000500000E+01  0.51100000000E-03 0.  1.
     100001    1    1    2    0    0 -0.21146709638E-01  0.62106307556E-02 -0.37745512439E-02  0.50000500000E+01  0.50000000000E+01 0.  1.
     100001    1    1    2    0    0  0.21146709638E-01 -0.62106307556E-02  0.37745512439E-02  0.50000500000E+01  0.50000000000E+01 0. -1.
</event>
<event>
 4    1  0.4897575E-001  0.5000050E+01  0.7818608E-02  0.2136455E+00
        -11   -1    0    0    0    0  0.00000000000E+00  0.00000000000E+00  0.50000499739E+01  0.50000500000E+01  0.51100000000E-03 0.  1.
         11   -1    0    0    0    0 -0.00000000000E+00 -0.00000000000E+00 -0.50000499739E+01  0.50000500000E+01  0.51100000000E-03 0. -1.
     100001    1    1    2    0    0  0.16540931849E-01 -0.78044414251E-02 -0.12864321498E-01  0.50000500000E+01  0.50000000000E+01 0.  0.
     100001    1    1    2    0    0 -0.16540931849E-01  0.78044414251E-02  0.12864321498E-01  0.50000500000E+01  0.50000000000E+01 0. -1.
</event>
<event>
 4    1  0.4897575E-001  0.5000050E+01  0.7818608E-02  0.2136455E+00
        -11   -1    0    0    0    0  0.00000000000E+00  0.00000000000E+00  0.50000499739E+01  0.50000500000E+01  0.51100000000E-03 0. -1.
         11   -1    0    0    0    0 -0.00000000000E+00 -0.00000000000E+00 -0.50000499739E+01  0.50000500000E+01  0.51100000000E-03 0.  1.
     100001    1    1    2    0    0 -0.12614829182E-02  0.22066365038E-01  0.33892026855E-02  0.50000500000E+01  0.50000000000E+01 0.  1.
     100001    1    1    2    0    0  0.12614829182E-02 -0.22066365038E-01 -0.33892026855E-02  0.50000500000E+01  0.50000000000E+01 0.  0.
</event>
<event>
 4    1  0.4897575E-001  0.5000050E+01  0.7818608E-02  0.2136455E+00
        -11   -1    0    0    0    0  0.00000000000E+00  0.00000000000E+00  0.50000499739E+01  0.50000500000E+01  0.51100000000E-03 0.  1.
         11   -1    0    0    0    0 -0.00000000000E+00 -0.00000000000E+00 -0.50000499739E+01  0.50000500000E+01  0.51100000000E-03 0. -1.
     100001    1    1    2    0    0 -0.21586058980E-01  0.48437500946E-02 -0.32530974046E-02  0.50000500000E+01  0.50000000000E+01 0.  1.
     100001    1    1    2    0    0  0.21586058980E-01 -0.48437500946E-02  0.32530974046E-02  0.50000500000E+01  0.50000000000E+01 0.  0.
</event>
<event>
 4    1  0.4897575E-001  0.5000050E+01  0.7818608E-02  0.2136455E+00
        -11   -1    0    0    0    0  0.00000000000E+00  0.00000000000E+00  0.50000499739E+01  0.50000500000E+01  0.51100000000E-03 0.  1.
         11   -1    0    0    0    0 -0.00000000000E+00 -0.00000000000E+00 -0.50000499739E+01  0.50000500000E+01  0.51100000000E-03 0. -1.
     100001    1    1    2    0    0 -0.86369499835E-02  0.18540561139E-01  0.90362153377E-02  0.50000500000E+01  0.50000000000E+01 0. -1.
     100001    1    1    2    0    0  0.86369499835E-02 -0.18540561139E-01 -0.90362153377E-02  0.50000500000E+01  0.50000000000E+01 0.  0.
</event>
<event>
 4    1  0.4897575E-001  0.5000050E+01  0.7818608E-02  0.2136455E+00
        -11   -1    0    0    0    0  0.00000000000E+00  0.00000000000E+00  0.50000499739E+01  0.50000500000E+01  0.51100000000E-03 0. -1.
         11   -1    0    0    0    0 -0.00000000000E+00 -0.00000000000E+00 -0.50000499739E+01  0.50000500000E+01  0.51100000000E-03 0.  1.
     100001    1    1    2    0    0 -0.12331272919E-01 -0.13408381542E-01  0.12967556154E-01  0.50000500000E+01  0.50000000000E+01 0.  0.
     100001    1    1    2    0    0  0.12331272919E-01  0.13408381542E-01 -0.12967556154E-01  0.50000500000E+01  0.50000000000E+01 0.  0.
</event>
<event>
 4    1  0.4897575E-001  0.5000050E+01  0.7818608E-02  0.2136455E+00
        -11   -1    0    0    0    0  0.00000000000E+00  0.00000000000E+00  0.50000499739E+01  0.50000500000E+01  0.51100000000E-03 0.  1.
         11   -1    0    0    0    0 -0.00000000000E+00 -0.00000000000E+00 -0.50000499739E+01  0.50000500000E+01  0.51100000000E-03 0. -1.
     100001    1    1    2    0    0  0.25068930933E-02 -0.19934268002E-01  0.98154442713E-02  0.50000500000E+01  0.50000000000E+01 0.  1.
     100001    1    1    2    0    0 -0.25068930933E-02  0.19934268002E-01 -0.98154442713E-02  0.50000500000E+01  0.50000000000E+01 0. -1.
</event>
<event>
 4    1  0.4897575E-001  0.5000050E+01  0.7818608E-02  0.2136455E+00
        -11   -1    0    0    0    0  0.00000000000E+00  0.00000000000E+00  0.50000499739E+01  0.50000500000E+01  0.51100000000E-03 0.  1.
         11   -1    0    0    0    0 -0.00000000000E+00 -0.00000000000E+00 -0.50000499739E+01  0.50000500000E+01  0.51100000000E-03 0. -1.
     100001    1    1    2    0    0 -0.17503027650E-01  0.12288507345E-01 -0.65298629630E-02  0.50000500000E+01  0.50000000000E+01 0.  0.
     100001    1    1    2    0    0  0.17503027650E-01 -0.12288507345E-01  0.65298629630E-02  0.50000500000E+01  0.50000000000E+01 0. -1.
</event>
<event>
 4    1  0.4897575E-001  0.5000050E+01  0.7818608E-02  0.2136455E+00
        -11   -1    0    0    0    0  0.00000000000E+00  0.00000000000E+00  0.50000499739E+01  0.50000500000E+01  0.51100000000E-03 0. -1.
         11   -1    0    0    0    0 -0.00000000000E+00 -0.00000000000E+00 -0.50000499739E+01  0.50000500000E+01  0.51100000000E-03 0.  1.
     100001    1    1    2    0    0 -0.16327299372E-03  0.14027667861E-01 -0.17412649893E-01  0.50000500000E+01  0.50000000000E+01 0.  0.
     100001    1    1    2    0    0  0.16327299372E-03 -0.14027667861E-01  0.17412649893E-01  0.50000500000E+01  0.50000000000E+01 0. -1.
</event>
<event>
 4    1  0.4897575E-001  0.5000050E+01  0.7818608E-02  0.2136455E+00
        -11   -1    0    0    0    0  0.00000000000E+00  0.00000000000E+00  0.50000499739E+01  0.50000500000E+01  0.51100000000E-03 0. -1.
         11   -1    0    0    0    0 -0.00000000000E+00 -0.00000000000E+00 -0.50000499739E+01  0.50000500000E+01  0.51100000000E-03 0.  1.
     100001    1    1    2    0    0 -0.18286386477E-01 -0.12073938770E-01 -0.44531530623E-02  0.50000500000E+01  0.50000000000E+01 0. -1.
     100001    1    1    2    0    0  0.18286386477E-01  0.12073938770E-01  0.44531530623E-02  0.50000500000E+01  0.50000000000E+01 0.  0.
</event>
<event>
 4    1  0.1749742E+000  0.5000050E+01  0.7818608E-02  0.2136455E+00
        -11   -1    0    0    0    0  0.00000000000E+00  0.00000000000E+00  0.50000499739E+01  0.50000500000E+01  0.51100000000E-03 0. -1.
         11   -1    0    0    0    0 -0.00000000000E+00 -0.00000000000E+00 -0.50000499739E+01  0.50000500000E+01  0.51100000000E-03 0.  1.
     100001    1    1    2    0    0  0.10479889753E-02  0.14370151637E-02  0.22289890231E-01  0.50000500000E+01  0.50000000000E+01 0.  0.
     100001    1    1    2    0    0 -0.10479889753E-02 -0.14370151637E-02 -0.22289890231E-01  0.50000500000E+01  0.50000000000E+01 0.  1.
</event>
<event>
 4    1  0.4897575E-001  0.5000050E+01  0.7818608E-02  0.2136455E+00
        -11   -1    0    0    0    0  0.00000000000E+00  0.00000000000E+00  0.50000499739E+01  0.50000500000E+01  0.51100000000E-03 0.  1.
         11   -1    0    0    0    0 -0.00000000000E+00 -0.00000000000E+00 -0.50000499739E+01  0.50000500000E+01  0.51100000000E-03 0. -1.
     100001    1    1    2    0    0  0.81914864755E-02 -0.87313875505E-02  0.18885574409E-01  0.50000500000E+01  0.50000000000E+01 0.  1.
     100001    1    1    2    0    0 -0.81914864755E-02  0.87313875505E-02 -0.18885574409E-01  0.50000500000E+01  0.50000000000E+01 0. -1.
</event>
<event>
 4    1  0.4897575E-001  0.5000050E+01  0.7818608E-02  0.2136455E+00
        -11   -1    0    0    0    0  0.00000000000E+00  0.00000000000E+00  0.50000499739E+01  0.50000500000E+01  0.51100000000E-03 0.  1.
         11   -1    0    0    0    0 -0.00000000000E+00 -0.00000000000E+00 -0.50000499739E+01  0.50000500000E+01  0.51100000000E-03 0. -1.
     100001    1    1    2    0    0  0.11017955283E-02  0.12895619156E-01 -0.18234350912E-01  0.50000500000E+01  0.50000000000E+01 0. -1.
     100001    1    1    2    0    0 -0.11017955283E-02 -0.12895619156E-01  0.18234350912E-01  0.50000500000E+01  0.50000000000E+01 0.  0.
</event>
<event>
 4    1  0.4897575E-001  0.5000050E+01  0.7818608E-02  0.2136455E+00
        -11   -1    0    0    0    0  0.00000000000E+00  0.00000000000E+00  0.50000499739E+01  0.50000500000E+01  0.51100000000E-03 0.  1.
         11   -1    0    0    0    0 -0.00000000000E+00 -0.00000000000E+00 -0.50000499739E+01  0.50000500000E+01  0.51100000000E-03 0. -1.
     100001    1    1    2    0    0  0.44394855938E-02 -0.99653715541E-02  0.19518832892E-01  0.50000500000E+01  0.50000000000E+01 0.  0.
     100001    1    1    2    0    0 -0.44394855938E-02  0.99653715541E-02 -0.19518832892E-01  0.50000500000E+01  0.50000000000E+01 0. -1.
</event>
<event>
 4    1  0.4897575E-001  0.5000050E+01  0.7818608E-02  0.2136455E+00
        -11   -1    0    0    0    0  0.00000000000E+00  0.00000000000E+00  0.50000499739E+01  0.50000500000E+01  0.51100000000E-03 0. -1.
         11   -1    0    0    0    0 -0.00000000000E+00 -0.00000000000E+00 -0.50000499739E+01  0.50000500000E+01  0.51100000000E-03 0.  1.
     100001    1    1    2    0    0  0.84862994893E-02  0.84005327449E-02 -0.18905456106E-01  0.50000500000E+01  0.50000000000E+01 0.  0.
     100001    1    1    2    0    0 -0.84862994893E-02 -0.84005327449E-02  0.18905456106E-01  0.50000500000E+01  0.50000000000E+01 0. -1.
</event>
<event>
 4    1  0.4897575E-001  0.5000050E+01  0.7818608E-02  0.2136455E+00
        -11   -1    0    0    0    0  0.00000000000E+00  0.00000000000E+00  0.50000499739E+01  0.50000500000E+01  0.51100000000E-03 0.  1.
         11   -1    0    0    0    0 -0.00000000000E+00 -0.00000000000E+00 -0.50000499739E+01  0.50000500000E+01  0.51100000000E-03 0. -1.
     100001    1    1    2    0    0 -0.14712395860E-01 -0.33963491661E-02 -0.16492808141E-01  0.50000500000E+01  0.50000000000E+01 0. -1.
     100001    1    1    2    0    0  0.14712395860E-01  0.33963491661E-02  0.16492808141E-01  0.50000500000E+01  0.50000000000E+01 0. -1.
</event>
<event>
 4    1  0.4897575E-001  0.5000050E+01  0.7818608E-02  0.2136455E+00
        -11   -1    0    0    0    0  0.00000000000E+00  0.00000000000E+00  0.50000499739E+01  0.50000500000E+01  0.51100000000E-03 0. -1.
         11   -1    0    0    0    0 -0.00000000000E+00 -0.00000000000E+00 -0.50000499739E+01  0.50000500000E+01  0.51100000000E-03 0.  1.
     100001    1    1    2    0    0 -0.12704779946E-01 -0.17814530621E-01 -0.46079892868E-02  0.50000500000E+01  0.50000000000E+01 0. -1.
     100001    1    1    2    0    0  0.12704779946E-01  0.17814530621E-01  0.46079892868E-02  0.50000500000E+01  0.50000000000E+01 0.  1.
</event>
<event>
 4    1  0.4897575E-001  0.5000050E+01  0.7818608E-02  0.2136455E+00
        -11   -1    0    0    0    0  0.00000000000E+00  0.00000000000E+00  0.50000499739E+01  0.50000500000E+01  0.51100000000E-03 0.  1.
         11   -1    0    0    0    0 -0.00000000000E+00 -0.00000000000E+00 -0.50000499739E+01  0.50000500000E+01  0.51100000000E-03 0. -1.
     100001    1    1    2    0    0  0.15534699163E-01 -0.10906256243E-01 -0.11820710498E-01  0.50000500000E+01  0.50000000000E+01 0. -1.
     100001    1    1    2    0    0 -0.15534699163E-01  0.10906256243E-01  0.11820710498E-01  0.50000500000E+01  0.50000000000E+01 0.  1.
</event>
<event>
 4    1  0.4897575E-001  0.5000050E+01  0.7818608E-02  0.2136455E+00
        -11   -1    0    0    0    0  0.00000000000E+00  0.00000000000E+00  0.50000499739E+01  0.50000500000E+01  0.51100000000E-03 0. -1.
         11   -1    0    0    0    0 -0.00000000000E+00 -0.00000000000E+00 -0.50000499739E+01  0.50000500000E+01  0.51100000000E-03 0.  1.
     100001    1    1    2    0    0  0.71006547189E-02 -0.90742779168E-02 -0.19163524802E-01  0.50000500000E+01  0.50000000000E+01 0. -1.
     100001    1    1    2    0    0 -0.71006547189E-02  0.90742779168E-02  0.19163524802E-01  0.50000500000E+01  0.50000000000E+01 0. -1.
</event>
<event>
 4    1  0.4897575E-001  0.5000050E+01  0.7818608E-02  0.2136455E+00
        -11   -1    0    0    0    0  0.00000000000E+00  0.00000000000E+00  0.50000499739E+01  0.50000500000E+01  0.51100000000E-03 0. -1.
         11   -1    0    0    0    0 -0.00000000000E+00 -0.00000000000E+00 -0.50000499739E+01  0.50000500000E+01  0.51100000000E-03 0.  1.
     100001    1    1    2    0    0 -0.12318006529E-01 -0.15739804989E-01 -0.10026352979E-01  0.50000500000E+01  0.50000000000E+01 0.  1.
     100001    1    1    2    0    0  0.12318006529E-01  0.15739804989E-01  0.10026352979E-01  0.50000500000E+01  0.50000000000E+01 0. -1.
</event>
<event>
 4    1  0.4897575E-001  0.5000050E+01  0.7818608E-02  0.2136455E+00
        -11   -1    0    0    0    0  0.00000000000E+00  0.00000000000E+00  0.50000499739E+01  0.50000500000E+01  0.51100000000E-03 0.  1.
         11   -1    0    0    0    0 -0.00000000000E+00 -0.00000000000E+00 -0.50000499739E+01  0.50000500000E+01  0.51100000000E-03 0. -1.
     100001    1    1    2    0    0 -0.19497587987E-01 -0.80813955767E-02 -0.73849582401E-02  0.50000500000E+01  0.50000000000E+01 0. -1.
     100001    1    1    2    0    0  0.19497587987E-01  0.80813955767E-02  0.73849582401E-02  0.50000500000E+01  0.50000000000E+01 0.  1.
</event>
<event>
 4    1  0.4897575E-001  0.5000050E+01  0.7818608E-02  0.2136455E+00
        -11   -1    0    0    0    0  0.00000000000E+00  0.00000000000E+00  0.50000499739E+01  0.50000500000E+01  0.51100000000E-03 0. -1.
         11   -1    0    0    0    0 -0.00000000000E+00 -0.00000000000E+00 -0.50000499739E+01  0.50000500000E+01  0.51100000000E-03 0.  1.
     100001    1    1    2    0    0  0.18365342998E-01 -0.24946239477E-02  0.12509737324E-01  0.50000500000E+01  0.50000000000E+01 0.  1.
     100001    1    1    2    0    0 -0.18365342998E-01  0.24946239477E-02 -0.12509737324E-01  0.50000500000E+01  0.50000000000E+01 0. -1.
</event>
<event>
 4    1  0.4897575E-001  0.5000050E+01  0.7818608E-02  0.2136455E+00
        -11   -1    0    0    0    0  0.00000000000E+00  0.00000000000E+00  0.50000499739E+01  0.50000500000E+01  0.51100000000E-03 0. -1.
         11   -1    0    0    0    0 -0.00000000000E+00 -0.00000000000E+00 -0.50000499739E+01  0.50000500000E+01  0.51100000000E-03 0.  1.
     100001    1    1    2    0    0  0.13144432513E-01 -0.10006767658E-01 -0.15069538644E-01  0.50000500000E+01  0.50000000000E+01 0.  0.
     100001    1    1    2    0    0 -0.13144432513E-01  0.10006767658E-01  0.15069538644E-01  0.50000500000E+01  0.50000000000E+01 0.  0.
</event>
<event>
 4    1  0.4897575E-001  0.5000050E+01  0.7818608E-02  0.2136455E+00
        -11   -1    0    0    0    0  0.00000000000E+00  0.00000000000E+00  0.50000499739E+01  0.50000500000E+01  0.51100000000E-03 0. -1.
         11   -1    0    0    0    0 -0.00000000000E+00 -0.00000000000E+00 -0.50000499739E+01  0.50000500000E+01  0.51100000000E-03 0.  1.
     100001    1    1    2    0    0  0.13395337531E-01 -0.74482122859E-02 -0.16281632786E-01  0.50000500000E+01  0.50000000000E+01 0.  0.
     100001    1    1    2    0    0 -0.13395337531E-01  0.74482122859E-02  0.16281632786E-01  0.50000500000E+01  0.50000000000E+01 0.  0.
</event>
<event>
 4    1  0.4897575E-001  0.5000050E+01  0.7818608E-02  0.2136455E+00
        -11   -1    0    0    0    0  0.00000000000E+00  0.00000000000E+00  0.50000499739E+01  0.50000500000E+01  0.51100000000E-03 0. -1.
         11   -1    0    0    0    0 -0.00000000000E+00 -0.00000000000E+00 -0.50000499739E+01  0.50000500000E+01  0.51100000000E-03 0.  1.
     100001    1    1    2    0    0 -0.14982187953E-01 -0.41145697484E-02  0.16081258033E-01  0.50000500000E+01  0.50000000000E+01 0.  0.
     100001    1    1    2    0    0  0.14982187953E-01  0.41145697484E-02 -0.16081258033E-01  0.50000500000E+01  0.50000000000E+01 0.  0.
</event>
<event>
 4    1  0.4897575E-001  0.5000050E+01  0.7818608E-02  0.2136455E+00
        -11   -1    0    0    0    0  0.00000000000E+00  0.00000000000E+00  0.50000499739E+01  0.50000500000E+01  0.51100000000E-03 0.  1.
         11   -1    0    0    0    0 -0.00000000000E+00 -0.00000000000E+00 -0.50000499739E+01  0.50000500000E+01  0.51100000000E-03 0. -1.
     100001    1    1    2    0    0  0.15975151317E-01 -0.10986973033E-01 -0.11139275739E-01  0.50000500000E+01  0.50000000000E+01 0. -1.
     100001    1    1    2    0    0 -0.15975151317E-01  0.10986973033E-01  0.11139275739E-01  0.50000500000E+01  0.50000000000E+01 0.  1.
</event>
<event>
 4    1  0.4897575E-001  0.5000050E+01  0.7818608E-02  0.2136455E+00
        -11   -1    0    0    0    0  0.00000000000E+00  0.00000000000E+00  0.50000499739E+01  0.50000500000E+01  0.51100000000E-03 0.  1.
         11   -1    0    0    0    0 -0.00000000000E+00 -0.00000000000E+00 -0.50000499739E+01  0.50000500000E+01  0.51100000000E-03 0. -1.
     100001    1    1    2    0    0 -0.21828656489E-01  0.40363081351E-02 -0.26870936917E-02  0.50000500000E+01  0.50000000000E+01 0. -1.
     100001    1    1    2    0    0  0.21828656489E-01 -0.40363081351E-02  0.26870936917E-02  0.50000500000E+01  0.50000000000E+01 0.  1.
</event>
<event>
 4    1  0.4897575E-001  0.5000050E+01  0.7818608E-02  0.2136455E+00
        -11   -1    0    0    0    0  0.00000000000E+00  0.00000000000E+00  0.50000499739E+01  0.50000500000E+01  0.51100000000E-03 0. -1.
         11   -1    0    0    0    0 -0.00000000000E+00 -0.00000000000E+00 -0.50000499739E+01  0.50000500000E+01  0.51100000000E-03 0.  1.
     100001    1    1    2    0    0 -0.58678897318E-02 -0.13984167251E-02  0.21531716159E-01  0.50000500000E+01  0.50000000000E+01 0. -1.
     100001    1    1    2    0    0  0.58678897318E-02  0.13984167251E-02 -0.21531716159E-01  0.50000500000E+01  0.50000000000E+01 0.  1.
</event>
<event>
 4    1  0.4897575E-001  0.5000050E+01  0.7818608E-02  0.2136455E+00
        -11   -1    0    0    0    0  0.00000000000E+00  0.00000000000E+00  0.50000499739E+01  0.50000500000E+01  0.51100000000E-03 0.  1.
         11   -1    0    0    0    0 -0.00000000000E+00 -0.00000000000E+00 -0.50000499739E+01  0.50000500000E+01  0.51100000000E-03 0. -1.
     100001    1    1    2    0    0 -0.66253281196E-02 -0.65252296159E-03 -0.21346703284E-01  0.50000500000E+01  0.50000000000E+01 0.  0.
     100001    1    1    2    0    0  0.66253281196E-02  0.65252296159E-03  0.21346703284E-01  0.50000500000E+01  0.50000000000E+01 0.  1.
</event>
<event>
 4    1  0.4897575E-001  0.5000050E+01  0.7818608E-02  0.2136455E+00
        -11   -1    0    0    0    0  0.00000000000E+00  0.00000000000E+00  0.50000499739E+01  0.50000500000E+01  0.51100000000E-03 0.  1.
         11   -1    0    0    0    0 -0.00000000000E+00 -0.00000000000E+00 -0.50000499739E+01  0.50000500000E+01  0.51100000000E-03 0. -1.
     100001    1    1    2    0    0 -0.76500381991E-02 -0.20954809875E-01  0.15412198564E-02  0.50000500000E+01  0.50000000000E+01 0.  1.
     100001    1    1    2    0    0  0.76500381991E-02  0.20954809875E-01 -0.15412198564E-02  0.50000500000E+01  0.50000000000E+01 0.  0.
</event>
<event>
 4    1  0.4897575E-001  0.5000050E+01  0.7818608E-02  0.2136455E+00
        -11   -1    0    0    0    0  0.00000000000E+00  0.00000000000E+00  0.50000499739E+01  0.50000500000E+01  0.51100000000E-03 0. -1.
         11   -1    0    0    0    0 -0.00000000000E+00 -0.00000000000E+00 -0.50000499739E+01  0.50000500000E+01  0.51100000000E-03 0.  1.
     100001    1    1    2    0    0  0.94419911509E-03  0.14693950296E-01  0.16828511899E-01  0.50000500000E+01  0.50000000000E+01 0.  0.
     100001    1    1    2    0    0 -0.94419911509E-03 -0.14693950296E-01 -0.16828511899E-01  0.50000500000E+01  0.50000000000E+01 0.  0.
</event>
<event>
 4    1  0.4897575E-001  0.5000050E+01  0.7818608E-02  0.2136455E+00
        -11   -1    0    0    0    0  0.00000000000E+00  0.00000000000E+00  0.50000499739E+01  0.50000500000E+01  0.51100000000E-03 0.  1.
         11   -1    0    0    0    0 -0.00000000000E+00 -0.00000000000E+00 -0.50000499739E+01  0.50000500000E+01  0.51100000000E-03 0. -1.
     100001    1    1    2    0    0 -0.45202044182E-02  0.17787137022E-01 -0.12774506197E-01  0.50000500000E+01  0.50000000000E+01 0. -1.
     100001    1    1    2    0    0  0.45202044182E-02 -0.17787137022E-01  0.12774506197E-01  0.50000500000E+01  0.50000000000E+01 0. -1.
</event>
<event>
 4    1  0.4897575E-001  0.5000050E+01  0.7818608E-02  0.2136455E+00
        -11   -1    0    0    0    0  0.00000000000E+00  0.00000000000E+00  0.50000499739E+01  0.50000500000E+01  0.51100000000E-03 0.  1.
         11   -1    0    0    0    0 -0.00000000000E+00 -0.00000000000E+00 -0.50000499739E+01  0.50000500000E+01  0.51100000000E-03 0. -1.
     100001    1    1    2    0    0  0.33902018654E-02  0.96598610734E-02  0.19879540119E-01  0.50000500000E+01  0.50000000000E+01 0.  0.
     100001    1    1    2    0    0 -0.33902018654E-02 -0.96598610734E-02 -0.19879540119E-01  0.50000500000E+01  0.50000000000E+01 0. -1.
</event>
<event>
 4    1  0.4897575E-001  0.5000050E+01  0.7818608E-02  0.2136455E+00
        -11   -1    0    0    0    0  0.00000000000E+00  0.00000000000E+00  0.50000499739E+01  0.50000500000E+01  0.51100000000E-03 0. -1.
         11   -1    0    0    0    0 -0.00000000000E+00 -0.00000000000E+00 -0.50000499739E+01  0.50000500000E+01  0.51100000000E-03 0.  1.
     100001    1    1    2    0    0  0.14991298399E-01 -0.10999472059E-01 -0.12420752261E-01  0.50000500000E+01  0.50000000000E+01 0.  1.
     100001    1    1    2    0    0 -0.14991298399E-01  0.10999472059E-01  0.12420752261E-01  0.50000500000E+01  0.50000000000E+01 0. -1.
</event>
<event>
 4    1  0.4897575E-001  0.5000050E+01  0.7818608E-02  0.2136455E+00
        -11   -1    0    0    0    0  0.00000000000E+00  0.00000000000E+00  0.50000499739E+01  0.50000500000E+01  0.51100000000E-03 0. -1.
         11   -1    0    0    0    0 -0.00000000000E+00 -0.00000000000E+00 -0.50000499739E+01  0.50000500000E+01  0.51100000000E-03 0.  1.
     100001    1    1    2    0    0 -0.67347014993E-02  0.26168307428E-02 -0.21161249788E-01  0.50000500000E+01  0.50000000000E+01 0. -1.
     100001    1    1    2    0    0  0.67347014993E-02 -0.26168307428E-02  0.21161249788E-01  0.50000500000E+01  0.50000000000E+01 0. -1.
</event>
<event>
 4    1  0.4897575E-001  0.5000050E+01  0.7818608E-02  0.2136455E+00
        -11   -1    0    0    0    0  0.00000000000E+00  0.00000000000E+00  0.50000499739E+01  0.50000500000E+01  0.51100000000E-03 0.  1.
         11   -1    0    0    0    0 -0.00000000000E+00 -0.00000000000E+00 -0.50000499739E+01  0.50000500000E+01  0.51100000000E-03 0. -1.
     100001    1    1    2    0    0 -0.16544492172E-01 -0.12690887742E-01 -0.80761158409E-02  0.50000500000E+01  0.50000000000E+01 0.  1.
     100001    1    1    2    0    0  0.16544492172E-01  0.12690887742E-01  0.80761158409E-02  0.50000500000E+01  0.50000000000E+01 0.  1.
</event>
<event>
 4    1  0.4897575E-001  0.5000050E+01  0.7818608E-02  0.2136455E+00
        -11   -1    0    0    0    0  0.00000000000E+00  0.00000000000E+00  0.50000499739E+01  0.50000500000E+01  0.51100000000E-03 0. -1.
         11   -1    0    0    0    0 -0.00000000000E+00 -0.00000000000E+00 -0.50000499739E+01  0.50000500000E+01  0.51100000000E-03 0.  1.
     100001    1    1    2    0    0 -0.20445901793E-01 -0.83698671692E-02  0.34515103101E-02  0.50000500000E+01  0.50000000000E+01 0.  0.
     100001    1    1    2    0    0  0.20445901793E-01  0.83698671692E-02 -0.34515103101E-02  0.50000500000E+01  0.50000000000E+01 0. -1.
</event>
<event>
 4    1  0.4897575E-001  0.5000050E+01  0.7818608E-02  0.2136455E+00
        -11   -1    0    0    0    0  0.00000000000E+00  0.00000000000E+00  0.50000499739E+01  0.50000500000E+01  0.51100000000E-03 0.  1.
         11   -1    0    0    0    0 -0.00000000000E+00 -0.00000000000E+00 -0.50000499739E+01  0.50000500000E+01  0.51100000000E-03 0. -1.
     100001    1    1    2    0    0 -0.20082021277E-02  0.13158719417E-01 -0.17967129084E-01  0.50000500000E+01  0.50000000000E+01 0.  0.
     100001    1    1    2    0    0  0.20082021277E-02 -0.13158719417E-01  0.17967129084E-01  0.50000500000E+01  0.50000000000E+01 0. -1.
</event>
<event>
 4    1  0.4897575E-001  0.5000050E+01  0.7818608E-02  0.2136455E+00
        -11   -1    0    0    0    0  0.00000000000E+00  0.00000000000E+00  0.50000499739E+01  0.50000500000E+01  0.51100000000E-03 0.  1.
         11   -1    0    0    0    0 -0.00000000000E+00 -0.00000000000E+00 -0.50000499739E+01  0.50000500000E+01  0.51100000000E-03 0. -1.
     100001    1    1    2    0    0 -0.10787836409E-01  0.18103587769E-01  0.74756401401E-02  0.50000500000E+01  0.50000000000E+01 0.  0.
     100001    1    1    2    0    0  0.10787836409E-01 -0.18103587769E-01 -0.74756401401E-02  0.50000500000E+01  0.50000000000E+01 0.  1.
</event>
<event>
 4    1  0.4897575E-001  0.5000050E+01  0.7818608E-02  0.2136455E+00
        -11   -1    0    0    0    0  0.00000000000E+00  0.00000000000E+00  0.50000499739E+01  0.50000500000E+01  0.51100000000E-03 0. -1.
         11   -1    0    0    0    0 -0.00000000000E+00 -0.00000000000E+00 -0.50000499739E+01  0.50000500000E+01  0.51100000000E-03 0.  1.
     100001    1    1    2    0    0  0.33516742560E-02  0.78596993178E-02 -0.20663830872E-01  0.50000500000E+01  0.50000000000E+01 0.  1.
     100001    1    1    2    0    0 -0.33516742560E-02 -0.78596993178E-02  0.20663830872E-01  0.50000500000E+01  0.50000000000E+01 0.  0.
</event>
<event>
 4    1  0.4897575E-001  0.5000050E+01  0.7818608E-02  0.2136455E+00
        -11   -1    0    0    0    0  0.00000000000E+00  0.00000000000E+00  0.50000499739E+01  0.50000500000E+01  0.51100000000E-03 0.  1.
         11   -1    0    0    0    0 -0.00000000000E+00 -0.00000000000E+00 -0.50000499739E+01  0.50000500000E+01  0.51100000000E-03 0. -1.
     100001    1    1    2    0    0 -0.24641221428E-02  0.18796561416E-01 -0.11858325388E-01  0.50000500000E+01  0.50000000000E+01 0.  0.
     100001    1    1    2    0    0  0.24641221428E-02 -0.18796561416E-01  0.11858325388E-01  0.50000500000E+01  0.50000000000E+01 0.  0.
</event>
<event>
 4    1  0.4897575E-001  0.5000050E+01  0.7818608E-02  0.2136455E+00
        -11   -1    0    0    0    0  0.00000000000E+00  0.00000000000E+00  0.50000499739E+01  0.50000500000E+01  0.51100000000E-03 0. -1.
         11   -1    0    0    0    0 -0.00000000000E+00 -0.00000000000E+00 -0.50000499739E+01  0.50000500000E+01  0.51100000000E-03 0.  1.
     100001    1    1    2    0    0 -0.35826108566E-02  0.20742552435E-01  0.75441313565E-02  0.50000500000E+01  0.50000000000E+01 0. -1.
     100001    1    1    2    0    0  0.35826108566E-02 -0.20742552435E-01 -0.75441313565E-02  0.50000500000E+01  0.50000000000E+01 0.  1.
</event>
<event>
 4    1  0.4897575E-001  0.5000050E+01  0.7818608E-02  0.2136455E+00
        -11   -1    0    0    0    0  0.00000000000E+00  0.00000000000E+00  0.50000499739E+01  0.50000500000E+01  0.51100000000E-03 0. -1.
         11   -1    0    0    0    0 -0.00000000000E+00 -0.00000000000E+00 -0.50000499739E+01  0.50000500000E+01  0.51100000000E-03 0.  1.
     100001    1    1    2    0    0 -0.10617420287E-01  0.16402187030E-01 -0.10873874521E-01  0.50000500000E+01  0.50000000000E+01 0.  0.
     100001    1    1    2    0    0  0.10617420287E-01 -0.16402187030E-01  0.10873874521E-01  0.50000500000E+01  0.50000000000E+01 0.  0.
</event>
<event>
 4    1  0.4897575E-001  0.5000050E+01  0.7818608E-02  0.2136455E+00
        -11   -1    0    0    0    0  0.00000000000E+00  0.00000000000E+00  0.50000499739E+01  0.50000500000E+01  0.51100000000E-03 0. -1.
         11   -1    0    0    0    0 -0.00000000000E+00 -0.00000000000E+00 -0.50000499739E+01  0.50000500000E+01  0.51100000000E-03 0.  1.
     100001    1    1    2    0    0  0.38230627213E-02  0.18271487585E-01  0.12310135372E-01  0.50000500000E+01  0.50000000000E+01 0.  0.
     100001    1    1    2    0    0 -0.38230627213E-02 -0.18271487585E-01 -0.12310135372E-01  0.50000500000E+01  0.50000000000E+01 0.  0.
</event>
<event>
 4    1  0.4897575E-001  0.5000050E+01  0.7818608E-02  0.2136455E+00
        -11   -1    0    0    0    0  0.00000000000E+00  0.00000000000E+00  0.50000499739E+01  0.50000500000E+01  0.51100000000E-03 0.  1.
         11   -1    0    0    0    0 -0.00000000000E+00 -0.00000000000E+00 -0.50000499739E+01  0.50000500000E+01  0.51100000000E-03 0. -1.
     100001    1    1    2    0    0  0.16699649279E-01 -0.14669638730E-01 -0.24343199204E-02  0.50000500000E+01  0.50000000000E+01 0.  1.
     100001    1    1    2    0    0 -0.16699649279E-01  0.14669638730E-01  0.24343199204E-02  0.50000500000E+01  0.50000000000E+01 0. -1.
</event>
<event>
 4    1  0.4897575E-001  0.5000050E+01  0.7818608E-02  0.2136455E+00
        -11   -1    0    0    0    0  0.00000000000E+00  0.00000000000E+00  0.50000499739E+01  0.50000500000E+01  0.51100000000E-03 0. -1.
         11   -1    0    0    0    0 -0.00000000000E+00 -0.00000000000E+00 -0.50000499739E+01  0.50000500000E+01  0.51100000000E-03 0.  1.
     100001    1    1    2    0    0  0.16060927132E-01  0.13654341450E-02  0.15497893704E-01  0.50000500000E+01  0.50000000000E+01 0.  0.
     100001    1    1    2    0    0 -0.16060927132E-01 -0.13654341450E-02 -0.15497893704E-01  0.50000500000E+01  0.50000000000E+01 0.  0.
</event>
<event>
 4    1  0.4897575E-001  0.5000050E+01  0.7818608E-02  0.2136455E+00
        -11   -1    0    0    0    0  0.00000000000E+00  0.00000000000E+00  0.50000499739E+01  0.50000500000E+01  0.51100000000E-03 0. -1.
         11   -1    0    0    0    0 -0.00000000000E+00 -0.00000000000E+00 -0.50000499739E+01  0.50000500000E+01  0.51100000000E-03 0.  1.
     100001    1    1    2    0    0 -0.16369283384E-01 -0.10340189794E-01 -0.11186131437E-01  0.50000500000E+01  0.50000000000E+01 0.  1.
     100001    1    1    2    0    0  0.16369283384E-01  0.10340189794E-01  0.11186131437E-01  0.50000500000E+01  0.50000000000E+01 0. -1.
</event>
<event>
 4    1  0.4897575E-001  0.5000050E+01  0.7818608E-02  0.2136455E+00
        -11   -1    0    0    0    0  0.00000000000E+00  0.00000000000E+00  0.50000499739E+01  0.50000500000E+01  0.51100000000E-03 0.  1.
         11   -1    0    0    0    0 -0.00000000000E+00 -0.00000000000E+00 -0.50000499739E+01  0.50000500000E+01  0.51100000000E-03 0. -1.
     100001    1    1    2    0    0 -0.13300525294E-01  0.49570121513E-02 -0.17277921097E-01  0.50000500000E+01  0.50000000000E+01 0.  0.
     100001    1    1    2    0    0  0.13300525294E-01 -0.49570121513E-02  0.17277921097E-01  0.50000500000E+01  0.50000000000E+01 0.  0.
</event>
<event>
 4    1  0.4897575E-001  0.5000050E+01  0.7818608E-02  0.2136455E+00
        -11   -1    0    0    0    0  0.00000000000E+00  0.00000000000E+00  0.50000499739E+01  0.50000500000E+01  0.51100000000E-03 0.  1.
         11   -1    0    0    0    0 -0.00000000000E+00 -0.00000000000E+00 -0.50000499739E+01  0.50000500000E+01  0.51100000000E-03 0. -1.
     100001    1    1    2    0    0 -0.17949016548E-01  0.39336011165E-02  0.12742138251E-01  0.50000500000E+01  0.50000000000E+01 0.  1.
     100001    1    1    2    0    0  0.17949016548E-01 -0.39336011165E-02 -0.12742138251E-01  0.50000500000E+01  0.50000000000E+01 0. -1.
</event>
<event>
 4    1  0.4897575E-001  0.5000050E+01  0.7818608E-02  0.2136455E+00
        -11   -1    0    0    0    0  0.00000000000E+00  0.00000000000E+00  0.50000499739E+01  0.50000500000E+01  0.51100000000E-03 0.  1.
         11   -1    0    0    0    0 -0.00000000000E+00 -0.00000000000E+00 -0.50000499739E+01  0.50000500000E+01  0.51100000000E-03 0. -1.
     100001    1    1    2    0    0 -0.24950006903E-02 -0.11784579156E-01  0.18838820708E-01  0.50000500000E+01  0.50000000000E+01 0.  0.
     100001    1    1    2    0    0  0.24950006903E-02  0.11784579156E-01 -0.18838820708E-01  0.50000500000E+01  0.50000000000E+01 0.  0.
</event>
<event>
 4    1  0.4897575E-001  0.5000050E+01  0.7818608E-02  0.2136455E+00
        -11   -1    0    0    0    0  0.00000000000E+00  0.00000000000E+00  0.50000499739E+01  0.50000500000E+01  0.51100000000E-03 0. -1.
         11   -1    0    0    0    0 -0.00000000000E+00 -0.00000000000E+00 -0.50000499739E+01  0.50000500000E+01  0.51100000000E-03 0.  1.
     100001    1    1    2    0    0 -0.18449648317E-01 -0.41536830243E-02  0.11931466562E-01  0.50000500000E+01  0.50000000000E+01 0. -1.
     100001    1    1    2    0    0  0.18449648317E-01  0.41536830243E-02 -0.11931466562E-01  0.50000500000E+01  0.50000000000E+01 0.  1.
</event>
<event>
 4    1  0.4897575E-001  0.5000050E+01  0.7818608E-02  0.2136455E+00
        -11   -1    0    0    0    0  0.00000000000E+00  0.00000000000E+00  0.50000499739E+01  0.50000500000E+01  0.51100000000E-03 0. -1.
         11   -1    0    0    0    0 -0.00000000000E+00 -0.00000000000E+00 -0.50000499739E+01  0.50000500000E+01  0.51100000000E-03 0.  1.
     100001    1    1    2    0    0 -0.20070515444E-01  0.86928930035E-02 -0.46487117625E-02  0.50000500000E+01  0.50000000000E+01 0.  1.
     100001    1    1    2    0    0  0.20070515444E-01 -0.86928930035E-02  0.46487117625E-02  0.50000500000E+01  0.50000000000E+01 0. -1.
</event>
<event>
 4    1  0.4897575E-001  0.5000050E+01  0.7818608E-02  0.2136455E+00
        -11   -1    0    0    0    0  0.00000000000E+00  0.00000000000E+00  0.50000499739E+01  0.50000500000E+01  0.51100000000E-03 0. -1.
         11   -1    0    0    0    0 -0.00000000000E+00 -0.00000000000E+00 -0.50000499739E+01  0.50000500000E+01  0.51100000000E-03 0.  1.
     100001    1    1    2    0    0 -0.20097082939E-01  0.49805554045E-02 -0.84441592371E-02  0.50000500000E+01  0.50000000000E+01 0.  0.
     100001    1    1    2    0    0  0.20097082939E-01 -0.49805554045E-02  0.84441592371E-02  0.50000500000E+01  0.50000000000E+01 0. -1.
</event>
<event>
 4    1  0.4897575E-001  0.5000050E+01  0.7818608E-02  0.2136455E+00
        -11   -1    0    0    0    0  0.00000000000E+00  0.00000000000E+00  0.50000499739E+01  0.50000500000E+01  0.51100000000E-03 0.  1.
         11   -1    0    0    0    0 -0.00000000000E+00 -0.00000000000E+00 -0.50000499739E+01  0.50000500000E+01  0.51100000000E-03 0. -1.
     100001    1    1    2    0    0 -0.30627852479E-02  0.22127079537E-01  0.10070738311E-02  0.50000500000E+01  0.50000000000E+01 0. -1.
     100001    1    1    2    0    0  0.30627852479E-02 -0.22127079537E-01 -0.10070738311E-02  0.50000500000E+01  0.50000000000E+01 0.  1.
</event>
<event>
 4    1  0.4897575E-001  0.5000050E+01  0.7818608E-02  0.2136455E+00
        -11   -1    0    0    0    0  0.00000000000E+00  0.00000000000E+00  0.50000499739E+01  0.50000500000E+01  0.51100000000E-03 0. -1.
         11   -1    0    0    0    0 -0.00000000000E+00 -0.00000000000E+00 -0.50000499739E+01  0.50000500000E+01  0.51100000000E-03 0.  1.
     100001    1    1    2    0    0 -0.65058351778E-02 -0.19463321754E-01  0.88800740396E-02  0.50000500000E+01  0.50000000000E+01 0. -1.
     100001    1    1    2    0    0  0.65058351778E-02  0.19463321754E-01 -0.88800740396E-02  0.50000500000E+01  0.50000000000E+01 0. -1.
</event>
<event>
 4    1  0.4897575E-001  0.5000050E+01  0.7818608E-02  0.2136455E+00
        -11   -1    0    0    0    0  0.00000000000E+00  0.00000000000E+00  0.50000499739E+01  0.50000500000E+01  0.51100000000E-03 0.  1.
         11   -1    0    0    0    0 -0.00000000000E+00 -0.00000000000E+00 -0.50000499739E+01  0.50000500000E+01  0.51100000000E-03 0. -1.
     100001    1    1    2    0    0  0.19158238563E-01  0.77619564378E-02 -0.85273927683E-02  0.50000500000E+01  0.50000000000E+01 0. -1.
     100001    1    1    2    0    0 -0.19158238563E-01 -0.77619564378E-02  0.85273927683E-02  0.50000500000E+01  0.50000000000E+01 0.  1.
</event>
<event>
 4    1  0.4897575E-001  0.5000050E+01  0.7818608E-02  0.2136455E+00
        -11   -1    0    0    0    0  0.00000000000E+00  0.00000000000E+00  0.50000499739E+01  0.50000500000E+01  0.51100000000E-03 0.  1.
         11   -1    0    0    0    0 -0.00000000000E+00 -0.00000000000E+00 -0.50000499739E+01  0.50000500000E+01  0.51100000000E-03 0. -1.
     100001    1    1    2    0    0  0.19211179229E-02  0.21151890033E-01 -0.69935222842E-02  0.50000500000E+01  0.50000000000E+01 0.  1.
     100001    1    1    2    0    0 -0.19211179229E-02 -0.21151890033E-01  0.69935222842E-02  0.50000500000E+01  0.50000000000E+01 0. -1.
</event>
<event>
 4    1  0.4897575E-001  0.5000050E+01  0.7818608E-02  0.2136455E+00
        -11   -1    0    0    0    0  0.00000000000E+00  0.00000000000E+00  0.50000499739E+01  0.50000500000E+01  0.51100000000E-03 0. -1.
         11   -1    0    0    0    0 -0.00000000000E+00 -0.00000000000E+00 -0.50000499739E+01  0.50000500000E+01  0.51100000000E-03 0.  1.
     100001    1    1    2    0    0  0.13434713482E-01 -0.49598896393E-02  0.17172957475E-01  0.50000500000E+01  0.50000000000E+01 0. -1.
     100001    1    1    2    0    0 -0.13434713482E-01  0.49598896393E-02 -0.17172957475E-01  0.50000500000E+01  0.50000000000E+01 0.  1.
</event>
<event>
 4    1  0.4897575E-001  0.5000050E+01  0.7818608E-02  0.2136455E+00
        -11   -1    0    0    0    0  0.00000000000E+00  0.00000000000E+00  0.50000499739E+01  0.50000500000E+01  0.51100000000E-03 0. -1.
         11   -1    0    0    0    0 -0.00000000000E+00 -0.00000000000E+00 -0.50000499739E+01  0.50000500000E+01  0.51100000000E-03 0.  1.
     100001    1    1    2    0    0  0.13720834336E-01 -0.62350314020E-02  0.16518643665E-01  0.50000500000E+01  0.50000000000E+01 0.  1.
     100001    1    1    2    0    0 -0.13720834336E-01  0.62350314020E-02 -0.16518643665E-01  0.50000500000E+01  0.50000000000E+01 0.  0.
</event>
<event>
 4    1  0.4897575E-001  0.5000050E+01  0.7818608E-02  0.2136455E+00
        -11   -1    0    0    0    0  0.00000000000E+00  0.00000000000E+00  0.50000499739E+01  0.50000500000E+01  0.51100000000E-03 0. -1.
         11   -1    0    0    0    0 -0.00000000000E+00 -0.00000000000E+00 -0.50000499739E+01  0.50000500000E+01  0.51100000000E-03 0.  1.
     100001    1    1    2    0    0 -0.13630112226E-01  0.63593785947E-02 -0.16546324202E-01  0.50000500000E+01  0.50000000000E+01 0.  0.
     100001    1    1    2    0    0  0.13630112226E-01 -0.63593785947E-02  0.16546324202E-01  0.50000500000E+01  0.50000000000E+01 0. -1.
</event>
<event>
 4    1  0.4897575E-001  0.5000050E+01  0.7818608E-02  0.2136455E+00
        -11   -1    0    0    0    0  0.00000000000E+00  0.00000000000E+00  0.50000499739E+01  0.50000500000E+01  0.51100000000E-03 0.  1.
         11   -1    0    0    0    0 -0.00000000000E+00 -0.00000000000E+00 -0.50000499739E+01  0.50000500000E+01  0.51100000000E-03 0. -1.
     100001    1    1    2    0    0  0.71084833672E-02  0.20601965584E-01 -0.50030968719E-02  0.50000500000E+01  0.50000000000E+01 0.  0.
     100001    1    1    2    0    0 -0.71084833672E-02 -0.20601965584E-01  0.50030968719E-02  0.50000500000E+01  0.50000000000E+01 0. -1.
</event>
<event>
 4    1  0.4897575E-001  0.5000050E+01  0.7818608E-02  0.2136455E+00
        -11   -1    0    0    0    0  0.00000000000E+00  0.00000000000E+00  0.50000499739E+01  0.50000500000E+01  0.51100000000E-03 0.  1.
         11   -1    0    0    0    0 -0.00000000000E+00 -0.00000000000E+00 -0.50000499739E+01  0.50000500000E+01  0.51100000000E-03 0. -1.
     100001    1    1    2    0    0  0.21490763025E-01  0.47041782154E-02  0.40025381830E-02  0.50000500000E+01  0.50000000000E+01 0.  0.
     100001    1    1    2    0    0 -0.21490763025E-01 -0.47041782154E-02 -0.40025381830E-02  0.50000500000E+01  0.50000000000E+01 0.  1.
</event>
<event>
 4    1  0.4897575E-001  0.5000050E+01  0.7818608E-02  0.2136455E+00
        -11   -1    0    0    0    0  0.00000000000E+00  0.00000000000E+00  0.50000499739E+01  0.50000500000E+01  0.51100000000E-03 0. -1.
         11   -1    0    0    0    0 -0.00000000000E+00 -0.00000000000E+00 -0.50000499739E+01  0.50000500000E+01  0.51100000000E-03 0.  1.
     100001    1    1    2    0    0 -0.98260055564E-02  0.20079831661E-01 -0.50246916390E-03  0.50000500000E+01  0.50000000000E+01 0.  1.
     100001    1    1    2    0    0  0.98260055564E-02 -0.20079831661E-01  0.50246916390E-03  0.50000500000E+01  0.50000000000E+01 0. -1.
</event>
<event>
 4    1  0.4897575E-001  0.5000050E+01  0.7818608E-02  0.2136455E+00
        -11   -1    0    0    0    0  0.00000000000E+00  0.00000000000E+00  0.50000499739E+01  0.50000500000E+01  0.51100000000E-03 0. -1.
         11   -1    0    0    0    0 -0.00000000000E+00 -0.00000000000E+00 -0.50000499739E+01  0.50000500000E+01  0.51100000000E-03 0.  1.
     100001    1    1    2    0    0 -0.98203821755E-02  0.10215769183E-01 -0.17297417550E-01  0.50000500000E+01  0.50000000000E+01 0.  1.
     100001    1    1    2    0    0  0.98203821755E-02 -0.10215769183E-01  0.17297417550E-01  0.50000500000E+01  0.50000000000E+01 0. -1.
</event>
<event>
 4    1  0.4897575E-001  0.5000050E+01  0.7818608E-02  0.2136455E+00
        -11   -1    0    0    0    0  0.00000000000E+00  0.00000000000E+00  0.50000499739E+01  0.50000500000E+01  0.51100000000E-03 0.  1.
         11   -1    0    0    0    0 -0.00000000000E+00 -0.00000000000E+00 -0.50000499739E+01  0.50000500000E+01  0.51100000000E-03 0. -1.
     100001    1    1    2    0    0 -0.21754286487E-01  0.51723511108E-02 -0.17419085546E-04  0.50000500000E+01  0.50000000000E+01 0.  1.
     100001    1    1    2    0    0  0.21754286487E-01 -0.51723511108E-02  0.17419085546E-04  0.50000500000E+01  0.50000000000E+01 0. -1.
</event>
<event>
 4    1  0.4897575E-001  0.5000050E+01  0.7818608E-02  0.2136455E+00
        -11   -1    0    0    0    0  0.00000000000E+00  0.00000000000E+00  0.50000499739E+01  0.50000500000E+01  0.51100000000E-03 0. -1.
         11   -1    0    0    0    0 -0.00000000000E+00 -0.00000000000E+00 -0.50000499739E+01  0.50000500000E+01  0.51100000000E-03 0.  1.
     100001    1    1    2    0    0 -0.83700335206E-02  0.14686526384E-01 -0.14637314701E-01  0.50000500000E+01  0.50000000000E+01 0.  1.
     100001    1    1    2    0    0  0.83700335206E-02 -0.14686526384E-01  0.14637314701E-01  0.50000500000E+01  0.50000000000E+01 0. -1.
</event>
<event>
 4    1  0.4897575E-001  0.5000050E+01  0.7818608E-02  0.2136455E+00
        -11   -1    0    0    0    0  0.00000000000E+00  0.00000000000E+00  0.50000499739E+01  0.50000500000E+01  0.51100000000E-03 0.  1.
         11   -1    0    0    0    0 -0.00000000000E+00 -0.00000000000E+00 -0.50000499739E+01  0.50000500000E+01  0.51100000000E-03 0. -1.
     100001    1    1    2    0    0 -0.20742026023E-01  0.82267834792E-02  0.14459910186E-02  0.50000500000E+01  0.50000000000E+01 0.  1.
     100001    1    1    2    0    0  0.20742026023E-01 -0.82267834792E-02 -0.14459910186E-02  0.50000500000E+01  0.50000000000E+01 0. -1.
</event>
<event>
 4    1  0.4897575E-001  0.5000050E+01  0.7818608E-02  0.2136455E+00
        -11   -1    0    0    0    0  0.00000000000E+00  0.00000000000E+00  0.50000499739E+01  0.50000500000E+01  0.51100000000E-03 0. -1.
         11   -1    0    0    0    0 -0.00000000000E+00 -0.00000000000E+00 -0.50000499739E+01  0.50000500000E+01  0.51100000000E-03 0.  1.
     100001    1    1    2    0    0 -0.18408038112E-02  0.19612969626E-01  0.10580423611E-01  0.50000500000E+01  0.50000000000E+01 0.  1.
     100001    1    1    2    0    0  0.18408038112E-02 -0.19612969626E-01 -0.10580423611E-01  0.50000500000E+01  0.50000000000E+01 0.  0.
</event>
<event>
 4    1  0.4897575E-001  0.5000050E+01  0.7818608E-02  0.2136455E+00
        -11   -1    0    0    0    0  0.00000000000E+00  0.00000000000E+00  0.50000499739E+01  0.50000500000E+01  0.51100000000E-03 0.  1.
         11   -1    0    0    0    0 -0.00000000000E+00 -0.00000000000E+00 -0.50000499739E+01  0.50000500000E+01  0.51100000000E-03 0. -1.
     100001    1    1    2    0    0 -0.14243523670E-01  0.56252840860E-02 -0.16293578871E-01  0.50000500000E+01  0.50000000000E+01 0. -1.
     100001    1    1    2    0    0  0.14243523670E-01 -0.56252840860E-02  0.16293578871E-01  0.50000500000E+01  0.50000000000E+01 0.  1.
</event>
<event>
 4    1  0.4897575E-001  0.5000050E+01  0.7818608E-02  0.2136455E+00
        -11   -1    0    0    0    0  0.00000000000E+00  0.00000000000E+00  0.50000499739E+01  0.50000500000E+01  0.51100000000E-03 0. -1.
         11   -1    0    0    0    0 -0.00000000000E+00 -0.00000000000E+00 -0.50000499739E+01  0.50000500000E+01  0.51100000000E-03 0.  1.
     100001    1    1    2    0    0  0.68942783859E-02  0.14715912297E-01 -0.15359471046E-01  0.50000500000E+01  0.50000000000E+01 0.  0.
     100001    1    1    2    0    0 -0.68942783859E-02 -0.14715912297E-01  0.15359471046E-01  0.50000500000E+01  0.50000000000E+01 0.  0.
</event>
<event>
 4    1  0.4897575E-001  0.5000050E+01  0.7818608E-02  0.2136455E+00
        -11   -1    0    0    0    0  0.00000000000E+00  0.00000000000E+00  0.50000499739E+01  0.50000500000E+01  0.51100000000E-03 0. -1.
         11   -1    0    0    0    0 -0.00000000000E+00 -0.00000000000E+00 -0.50000499739E+01  0.50000500000E+01  0.51100000000E-03 0.  1.
     100001    1    1    2    0    0 -0.10300644417E-01 -0.43034839321E-02  0.19374706466E-01  0.50000500000E+01  0.50000000000E+01 0. -1.
     100001    1    1    2    0    0  0.10300644417E-01  0.43034839321E-02 -0.19374706466E-01  0.50000500000E+01  0.50000000000E+01 0.  1.
</event>
<event>
 4    1  0.4897575E-001  0.5000050E+01  0.7818608E-02  0.2136455E+00
        -11   -1    0    0    0    0  0.00000000000E+00  0.00000000000E+00  0.50000499739E+01  0.50000500000E+01  0.51100000000E-03 0. -1.
         11   -1    0    0    0    0 -0.00000000000E+00 -0.00000000000E+00 -0.50000499739E+01  0.50000500000E+01  0.51100000000E-03 0.  1.
     100001    1    1    2    0    0 -0.25293968798E-03 -0.19508426467E-01  0.10925191911E-01  0.50000500000E+01  0.50000000000E+01 0. -1.
     100001    1    1    2    0    0  0.25293968798E-03  0.19508426467E-01 -0.10925191911E-01  0.50000500000E+01  0.50000000000E+01 0.  1.
</event>
<event>
 4    1  0.4897575E-001  0.5000050E+01  0.7818608E-02  0.2136455E+00
        -11   -1    0    0    0    0  0.00000000000E+00  0.00000000000E+00  0.50000499739E+01  0.50000500000E+01  0.51100000000E-03 0. -1.
         11   -1    0    0    0    0 -0.00000000000E+00 -0.00000000000E+00 -0.50000499739E+01  0.50000500000E+01  0.51100000000E-03 0.  1.
     100001    1    1    2    0    0  0.21169249967E-01  0.70177034624E-02  0.16177743774E-02  0.50000500000E+01  0.50000000000E+01 0.  1.
     100001    1    1    2    0    0 -0.21169249967E-01 -0.70177034624E-02 -0.16177743774E-02  0.50000500000E+01  0.50000000000E+01 0. -1.
</event>
<event>
 4    1  0.4897575E-001  0.5000050E+01  0.7818608E-02  0.2136455E+00
        -11   -1    0    0    0    0  0.00000000000E+00  0.00000000000E+00  0.50000499739E+01  0.50000500000E+01  0.51100000000E-03 0. -1.
         11   -1    0    0    0    0 -0.00000000000E+00 -0.00000000000E+00 -0.50000499739E+01  0.50000500000E+01  0.51100000000E-03 0.  1.
     100001    1    1    2    0    0 -0.77541406383E-02 -0.10185954482E-01 -0.18333633962E-01  0.50000500000E+01  0.50000000000E+01 0.  1.
     100001    1    1    2    0    0  0.77541406383E-02  0.10185954482E-01  0.18333633962E-01  0.50000500000E+01  0.50000000000E+01 0. -1.
</event>
<event>
 4    1  0.4897575E-001  0.5000050E+01  0.7818608E-02  0.2136455E+00
        -11   -1    0    0    0    0  0.00000000000E+00  0.00000000000E+00  0.50000499739E+01  0.50000500000E+01  0.51100000000E-03 0. -1.
         11   -1    0    0    0    0 -0.00000000000E+00 -0.00000000000E+00 -0.50000499739E+01  0.50000500000E+01  0.51100000000E-03 0.  1.
     100001    1    1    2    0    0  0.12756719000E-02  0.19256498652E-01  0.11294353496E-01  0.50000500000E+01  0.50000000000E+01 0. -1.
     100001    1    1    2    0    0 -0.12756719000E-02 -0.19256498652E-01 -0.11294353496E-01  0.50000500000E+01  0.50000000000E+01 0.  1.
</event>
<event>
 4    1  0.4897575E-001  0.5000050E+01  0.7818608E-02  0.2136455E+00
        -11   -1    0    0    0    0  0.00000000000E+00  0.00000000000E+00  0.50000499739E+01  0.50000500000E+01  0.51100000000E-03 0.  1.
         11   -1    0    0    0    0 -0.00000000000E+00 -0.00000000000E+00 -0.50000499739E+01  0.50000500000E+01  0.51100000000E-03 0. -1.
     100001    1    1    2    0    0 -0.21315731239E-01  0.39801306894E-02  0.54589982068E-02  0.50000500000E+01  0.50000000000E+01 0.  1.
     100001    1    1    2    0    0  0.21315731239E-01 -0.39801306894E-02 -0.54589982068E-02  0.50000500000E+01  0.50000000000E+01 0. -1.
</event>
<event>
 4    1  0.4897575E-001  0.5000050E+01  0.7818608E-02  0.2136455E+00
        -11   -1    0    0    0    0  0.00000000000E+00  0.00000000000E+00  0.50000499739E+01  0.50000500000E+01  0.51100000000E-03 0. -1.
         11   -1    0    0    0    0 -0.00000000000E+00 -0.00000000000E+00 -0.50000499739E+01  0.50000500000E+01  0.51100000000E-03 0.  1.
     100001    1    1    2    0    0  0.82387277884E-02 -0.20452887269E-01  0.37155439437E-02  0.50000500000E+01  0.50000000000E+01 0. -1.
     100001    1    1    2    0    0 -0.82387277884E-02  0.20452887269E-01 -0.37155439437E-02  0.50000500000E+01  0.50000000000E+01 0.  1.
</event>
<event>
 4    1  0.4897575E-001  0.5000050E+01  0.7818608E-02  0.2136455E+00
        -11   -1    0    0    0    0  0.00000000000E+00  0.00000000000E+00  0.50000499739E+01  0.50000500000E+01  0.51100000000E-03 0. -1.
         11   -1    0    0    0    0 -0.00000000000E+00 -0.00000000000E+00 -0.50000499739E+01  0.50000500000E+01  0.51100000000E-03 0.  1.
     100001    1    1    2    0    0 -0.17711037940E-01 -0.13266231110E-01  0.32138368399E-02  0.50000500000E+01  0.50000000000E+01 0.  1.
     100001    1    1    2    0    0  0.17711037940E-01  0.13266231110E-01 -0.32138368399E-02  0.50000500000E+01  0.50000000000E+01 0. -1.
</event>
<event>
 4    1  0.4897575E-001  0.5000050E+01  0.7818608E-02  0.2136455E+00
        -11   -1    0    0    0    0  0.00000000000E+00  0.00000000000E+00  0.50000499739E+01  0.50000500000E+01  0.51100000000E-03 0.  1.
         11   -1    0    0    0    0 -0.00000000000E+00 -0.00000000000E+00 -0.50000499739E+01  0.50000500000E+01  0.51100000000E-03 0. -1.
     100001    1    1    2    0    0  0.17555916511E-01 -0.51489519548E-02  0.12856149860E-01  0.50000500000E+01  0.50000000000E+01 0.  0.
     100001    1    1    2    0    0 -0.17555916511E-01  0.51489519548E-02 -0.12856149860E-01  0.50000500000E+01  0.50000000000E+01 0. -1.
</event>
<event>
 4    1  0.4897575E-001  0.5000050E+01  0.7818608E-02  0.2136455E+00
        -11   -1    0    0    0    0  0.00000000000E+00  0.00000000000E+00  0.50000499739E+01  0.50000500000E+01  0.51100000000E-03 0.  1.
         11   -1    0    0    0    0 -0.00000000000E+00 -0.00000000000E+00 -0.50000499739E+01  0.50000500000E+01  0.51100000000E-03 0. -1.
     100001    1    1    2    0    0  0.23390692778E-02 -0.58773326881E-02 -0.21447335858E-01  0.50000500000E+01  0.50000000000E+01 0.  0.
     100001    1    1    2    0    0 -0.23390692778E-02  0.58773326881E-02  0.21447335858E-01  0.50000500000E+01  0.50000000000E+01 0.  1.
</event>
<event>
 4    1  0.4897575E-001  0.5000050E+01  0.7818608E-02  0.2136455E+00
        -11   -1    0    0    0    0  0.00000000000E+00  0.00000000000E+00  0.50000499739E+01  0.50000500000E+01  0.51100000000E-03 0.  1.
         11   -1    0    0    0    0 -0.00000000000E+00 -0.00000000000E+00 -0.50000499739E+01  0.50000500000E+01  0.51100000000E-03 0. -1.
     100001    1    1    2    0    0 -0.10092333202E-01  0.62521569582E-02  0.18948821703E-01  0.50000500000E+01  0.50000000000E+01 0.  0.
     100001    1    1    2    0    0  0.10092333202E-01 -0.62521569582E-02 -0.18948821703E-01  0.50000500000E+01  0.50000000000E+01 0.  0.
</event>
<event>
 4    1  0.4897575E-001  0.5000050E+01  0.7818608E-02  0.2136455E+00
        -11   -1    0    0    0    0  0.00000000000E+00  0.00000000000E+00  0.50000499739E+01  0.50000500000E+01  0.51100000000E-03 0. -1.
         11   -1    0    0    0    0 -0.00000000000E+00 -0.00000000000E+00 -0.50000499739E+01  0.50000500000E+01  0.51100000000E-03 0.  1.
     100001    1    1    2    0    0 -0.17442920389E-01  0.43802221291E-02 -0.13287613872E-01  0.50000500000E+01  0.50000000000E+01 0.  1.
     100001    1    1    2    0    0  0.17442920389E-01 -0.43802221291E-02  0.13287613872E-01  0.50000500000E+01  0.50000000000E+01 0. -1.
</event>
<event>
 4    1  0.4897575E-001  0.5000050E+01  0.7818608E-02  0.2136455E+00
        -11   -1    0    0    0    0  0.00000000000E+00  0.00000000000E+00  0.50000499739E+01  0.50000500000E+01  0.51100000000E-03 0.  1.
         11   -1    0    0    0    0 -0.00000000000E+00 -0.00000000000E+00 -0.50000499739E+01  0.50000500000E+01  0.51100000000E-03 0. -1.
     100001    1    1    2    0    0 -0.18025590463E-01 -0.11967091209E-01  0.56452915320E-02  0.50000500000E+01  0.50000000000E+01 0.  1.
     100001    1    1    2    0    0  0.18025590463E-01  0.11967091209E-01 -0.56452915320E-02  0.50000500000E+01  0.50000000000E+01 0.  0.
</event>
<event>
 4    1  0.4897575E-001  0.5000050E+01  0.7818608E-02  0.2136455E+00
        -11   -1    0    0    0    0  0.00000000000E+00  0.00000000000E+00  0.50000499739E+01  0.50000500000E+01  0.51100000000E-03 0. -1.
         11   -1    0    0    0    0 -0.00000000000E+00 -0.00000000000E+00 -0.50000499739E+01  0.50000500000E+01  0.51100000000E-03 0.  1.
     100001    1    1    2    0    0  0.69581380876E-02  0.21240523667E-01 -0.65342841427E-03  0.50000500000E+01  0.50000000000E+01 0.  0.
     100001    1    1    2    0    0 -0.69581380876E-02 -0.21240523667E-01  0.65342841427E-03  0.50000500000E+01  0.50000000000E+01 0.  1.
</event>
<event>
 4    1  0.4897575E-001  0.5000050E+01  0.7818608E-02  0.2136455E+00
        -11   -1    0    0    0    0  0.00000000000E+00  0.00000000000E+00  0.50000499739E+01  0.50000500000E+01  0.51100000000E-03 0.  1.
         11   -1    0    0    0    0 -0.00000000000E+00 -0.00000000000E+00 -0.50000499739E+01  0.50000500000E+01  0.51100000000E-03 0. -1.
     100001    1    1    2    0    0  0.14922025000E-01 -0.14718980186E-01  0.77902048874E-02  0.50000500000E+01  0.50000000000E+01 0.  1.
     100001    1    1    2    0    0 -0.14922025000E-01  0.14718980186E-01 -0.77902048874E-02  0.50000500000E+01  0.50000000000E+01 0. -1.
</event>
<event>
 4    1  0.4897575E-001  0.5000050E+01  0.7818608E-02  0.2136455E+00
        -11   -1    0    0    0    0  0.00000000000E+00  0.00000000000E+00  0.50000499739E+01  0.50000500000E+01  0.51100000000E-03 0. -1.
         11   -1    0    0    0    0 -0.00000000000E+00 -0.00000000000E+00 -0.50000499739E+01  0.50000500000E+01  0.51100000000E-03 0.  1.
     100001    1    1    2    0    0  0.21560424241E-01  0.59238570225E-02  0.24191837694E-03  0.50000500000E+01  0.50000000000E+01 0. -1.
     100001    1    1    2    0    0 -0.21560424241E-01 -0.59238570225E-02 -0.24191837694E-03  0.50000500000E+01  0.50000000000E+01 0.  0.
</event>
<event>
 4    1  0.4897575E-001  0.5000050E+01  0.7818608E-02  0.2136455E+00
        -11   -1    0    0    0    0  0.00000000000E+00  0.00000000000E+00  0.50000499739E+01  0.50000500000E+01  0.51100000000E-03 0. -1.
         11   -1    0    0    0    0 -0.00000000000E+00 -0.00000000000E+00 -0.50000499739E+01  0.50000500000E+01  0.51100000000E-03 0.  1.
     100001    1    1    2    0    0 -0.14025653875E-01  0.13962314159E-01  0.10408521350E-01  0.50000500000E+01  0.50000000000E+01 0.  0.
     100001    1    1    2    0    0  0.14025653875E-01 -0.13962314159E-01 -0.10408521350E-01  0.50000500000E+01  0.50000000000E+01 0. -1.
</event>
<event>
 4    1  0.4897575E-001  0.5000050E+01  0.7818608E-02  0.2136455E+00
        -11   -1    0    0    0    0  0.00000000000E+00  0.00000000000E+00  0.50000499739E+01  0.50000500000E+01  0.51100000000E-03 0. -1.
         11   -1    0    0    0    0 -0.00000000000E+00 -0.00000000000E+00 -0.50000499739E+01  0.50000500000E+01  0.51100000000E-03 0.  1.
     100001    1    1    2    0    0 -0.16039515453E-01 -0.13624618611E-01  0.75568652059E-02  0.50000500000E+01  0.50000000000E+01 0.  1.
     100001    1    1    2    0    0  0.16039515453E-01  0.13624618611E-01 -0.75568652059E-02  0.50000500000E+01  0.50000000000E+01 0. -1.
</event>
<event>
 4    1  0.4897575E-001  0.5000050E+01  0.7818608E-02  0.2136455E+00
        -11   -1    0    0    0    0  0.00000000000E+00  0.00000000000E+00  0.50000499739E+01  0.50000500000E+01  0.51100000000E-03 0.  1.
         11   -1    0    0    0    0 -0.00000000000E+00 -0.00000000000E+00 -0.50000499739E+01  0.50000500000E+01  0.51100000000E-03 0. -1.
     100001    1    1    2    0    0 -0.23000769372E-02 -0.17238548940E-01 -0.14055055195E-01  0.50000500000E+01  0.50000000000E+01 0. -1.
     100001    1    1    2    0    0  0.23000769372E-02  0.17238548940E-01  0.14055055195E-01  0.50000500000E+01  0.50000000000E+01 0.  1.
</event>
<event>
 4    1  0.4897575E-001  0.5000050E+01  0.7818608E-02  0.2136455E+00
        -11   -1    0    0    0    0  0.00000000000E+00  0.00000000000E+00  0.50000499739E+01  0.50000500000E+01  0.51100000000E-03 0.  1.
         11   -1    0    0    0    0 -0.00000000000E+00 -0.00000000000E+00 -0.50000499739E+01  0.50000500000E+01  0.51100000000E-03 0. -1.
     100001    1    1    2    0    0 -0.17617422954E-01 -0.59737467285E-02  0.12407387254E-01  0.50000500000E+01  0.50000000000E+01 0.  0.
     100001    1    1    2    0    0  0.17617422954E-01  0.59737467285E-02 -0.12407387254E-01  0.50000500000E+01  0.50000000000E+01 0.  0.
</event>
<event>
 4    1  0.4897575E-001  0.5000050E+01  0.7818608E-02  0.2136455E+00
        -11   -1    0    0    0    0  0.00000000000E+00  0.00000000000E+00  0.50000499739E+01  0.50000500000E+01  0.51100000000E-03 0.  1.
         11   -1    0    0    0    0 -0.00000000000E+00 -0.00000000000E+00 -0.50000499739E+01  0.50000500000E+01  0.51100000000E-03 0. -1.
     100001    1    1    2    0    0  0.12180064026E-01 -0.11142367631E-02 -0.18719161753E-01  0.50000500000E+01  0.50000000000E+01 0. -1.
     100001    1    1    2    0    0 -0.12180064026E-01  0.11142367631E-02  0.18719161753E-01  0.50000500000E+01  0.50000000000E+01 0.  1.
</event>
<event>
 4    1  0.4897575E-001  0.5000050E+01  0.7818608E-02  0.2136455E+00
        -11   -1    0    0    0    0  0.00000000000E+00  0.00000000000E+00  0.50000499739E+01  0.50000500000E+01  0.51100000000E-03 0. -1.
         11   -1    0    0    0    0 -0.00000000000E+00 -0.00000000000E+00 -0.50000499739E+01  0.50000500000E+01  0.51100000000E-03 0.  1.
     100001    1    1    2    0    0  0.16363343212E-01 -0.13908773638E-01 -0.62281228961E-02  0.50000500000E+01  0.50000000000E+01 0.  0.
     100001    1    1    2    0    0 -0.16363343212E-01  0.13908773638E-01  0.62281228961E-02  0.50000500000E+01  0.50000000000E+01 0.  1.
</event>
<event>
 4    1  0.4897575E-001  0.5000050E+01  0.7818608E-02  0.2136455E+00
        -11   -1    0    0    0    0  0.00000000000E+00  0.00000000000E+00  0.50000499739E+01  0.50000500000E+01  0.51100000000E-03 0. -1.
         11   -1    0    0    0    0 -0.00000000000E+00 -0.00000000000E+00 -0.50000499739E+01  0.50000500000E+01  0.51100000000E-03 0.  1.
     100001    1    1    2    0    0 -0.53808676085E-03  0.21555993959E-01 -0.59204803094E-02  0.50000500000E+01  0.50000000000E+01 0.  0.
     100001    1    1    2    0    0  0.53808676085E-03 -0.21555993959E-01  0.59204803094E-02  0.50000500000E+01  0.50000000000E+01 0.  1.
</event>
<event>
 4    1  0.4897575E-001  0.5000050E+01  0.7818608E-02  0.2136455E+00
        -11   -1    0    0    0    0  0.00000000000E+00  0.00000000000E+00  0.50000499739E+01  0.50000500000E+01  0.51100000000E-03 0. -1.
         11   -1    0    0    0    0 -0.00000000000E+00 -0.00000000000E+00 -0.50000499739E+01  0.50000500000E+01  0.51100000000E-03 0.  1.
     100001    1    1    2    0    0 -0.64909602695E-03 -0.48194290571E-02  0.21825541870E-01  0.50000500000E+01  0.50000000000E+01 0. -1.
     100001    1    1    2    0    0  0.64909602695E-03  0.48194290571E-02 -0.21825541870E-01  0.50000500000E+01  0.50000000000E+01 0.  0.
</event>
<event>
 4    1  0.4897575E-001  0.5000050E+01  0.7818608E-02  0.2136455E+00
        -11   -1    0    0    0    0  0.00000000000E+00  0.00000000000E+00  0.50000499739E+01  0.50000500000E+01  0.51100000000E-03 0.  1.
         11   -1    0    0    0    0 -0.00000000000E+00 -0.00000000000E+00 -0.50000499739E+01  0.50000500000E+01  0.51100000000E-03 0. -1.
     100001    1    1    2    0    0 -0.21791421914E-01  0.47395644590E-02  0.16349188690E-02  0.50000500000E+01  0.50000000000E+01 0.  1.
     100001    1    1    2    0    0  0.21791421914E-01 -0.47395644590E-02 -0.16349188690E-02  0.50000500000E+01  0.50000000000E+01 0. -1.
</event>
<event>
 4    1  0.1747355E+000  0.5000050E+01  0.7818608E-02  0.2136455E+00
        -11   -1    0    0    0    0  0.00000000000E+00  0.00000000000E+00  0.50000499739E+01  0.50000500000E+01  0.51100000000E-03 0.  1.
         11   -1    0    0    0    0 -0.00000000000E+00 -0.00000000000E+00 -0.50000499739E+01  0.50000500000E+01  0.51100000000E-03 0. -1.
     100001    1    1    2    0    0  0.25914621114E-02  0.23534304610E-03 -0.22208814416E-01  0.50000500000E+01  0.50000000000E+01 0. -1.
     100001    1    1    2    0    0 -0.25914621114E-02 -0.23534304610E-03  0.22208814416E-01  0.50000500000E+01  0.50000000000E+01 0.  0.
</event>
<event>
 4    1  0.4897575E-001  0.5000050E+01  0.7818608E-02  0.2136455E+00
        -11   -1    0    0    0    0  0.00000000000E+00  0.00000000000E+00  0.50000499739E+01  0.50000500000E+01  0.51100000000E-03 0. -1.
         11   -1    0    0    0    0 -0.00000000000E+00 -0.00000000000E+00 -0.50000499739E+01  0.50000500000E+01  0.51100000000E-03 0.  1.
     100001    1    1    2    0    0  0.21334565316E-01  0.34680564552E-02 -0.57281242313E-02  0.50000500000E+01  0.50000000000E+01 0.  1.
     100001    1    1    2    0    0 -0.21334565316E-01 -0.34680564552E-02  0.57281242313E-02  0.50000500000E+01  0.50000000000E+01 0. -1.
</event>
<event>
 4    1  0.4897575E-001  0.5000050E+01  0.7818608E-02  0.2136455E+00
        -11   -1    0    0    0    0  0.00000000000E+00  0.00000000000E+00  0.50000499739E+01  0.50000500000E+01  0.51100000000E-03 0.  1.
         11   -1    0    0    0    0 -0.00000000000E+00 -0.00000000000E+00 -0.50000499739E+01  0.50000500000E+01  0.51100000000E-03 0. -1.
     100001    1    1    2    0    0 -0.36371805786E-02 -0.58243647567E-02 -0.21280277080E-01  0.50000500000E+01  0.50000000000E+01 0.  0.
     100001    1    1    2    0    0  0.36371805786E-02  0.58243647567E-02  0.21280277080E-01  0.50000500000E+01  0.50000000000E+01 0.  1.
</event>
<event>
 4    1  0.4897575E-001  0.5000050E+01  0.7818608E-02  0.2136455E+00
        -11   -1    0    0    0    0  0.00000000000E+00  0.00000000000E+00  0.50000499739E+01  0.50000500000E+01  0.51100000000E-03 0.  1.
         11   -1    0    0    0    0 -0.00000000000E+00 -0.00000000000E+00 -0.50000499739E+01  0.50000500000E+01  0.51100000000E-03 0. -1.
     100001    1    1    2    0    0 -0.89750040632E-02  0.86727480637E-02  0.18553577636E-01  0.50000500000E+01  0.50000000000E+01 0.  1.
     100001    1    1    2    0    0  0.89750040632E-02 -0.86727480637E-02 -0.18553577636E-01  0.50000500000E+01  0.50000000000E+01 0.  0.
</event>
<event>
 4    1  0.4897575E-001  0.5000050E+01  0.7818608E-02  0.2136455E+00
        -11   -1    0    0    0    0  0.00000000000E+00  0.00000000000E+00  0.50000499739E+01  0.50000500000E+01  0.51100000000E-03 0.  1.
         11   -1    0    0    0    0 -0.00000000000E+00 -0.00000000000E+00 -0.50000499739E+01  0.50000500000E+01  0.51100000000E-03 0. -1.
     100001    1    1    2    0    0  0.69859189938E-02 -0.20780462812E-01 -0.44013408317E-02  0.50000500000E+01  0.50000000000E+01 0. -1.
     100001    1    1    2    0    0 -0.69859189938E-02  0.20780462812E-01  0.44013408317E-02  0.50000500000E+01  0.50000000000E+01 0. -1.
</event>
<event>
 4    1  0.4897575E-001  0.5000050E+01  0.7818608E-02  0.2136455E+00
        -11   -1    0    0    0    0  0.00000000000E+00  0.00000000000E+00  0.50000499739E+01  0.50000500000E+01  0.51100000000E-03 0.  1.
         11   -1    0    0    0    0 -0.00000000000E+00 -0.00000000000E+00 -0.50000499739E+01  0.50000500000E+01  0.51100000000E-03 0. -1.
     100001    1    1    2    0    0 -0.12248308778E-01  0.99586114478E-03  0.18681265820E-01  0.50000500000E+01  0.50000000000E+01 0. -1.
     100001    1    1    2    0    0  0.12248308778E-01 -0.99586114478E-03 -0.18681265820E-01  0.50000500000E+01  0.50000000000E+01 0.  0.
</event>
<event>
 4    1  0.4897575E-001  0.5000050E+01  0.7818608E-02  0.2136455E+00
        -11   -1    0    0    0    0  0.00000000000E+00  0.00000000000E+00  0.50000499739E+01  0.50000500000E+01  0.51100000000E-03 0.  1.
         11   -1    0    0    0    0 -0.00000000000E+00 -0.00000000000E+00 -0.50000499739E+01  0.50000500000E+01  0.51100000000E-03 0. -1.
     100001    1    1    2    0    0  0.17410455699E-01 -0.17969565157E-02 -0.13915799640E-01  0.50000500000E+01  0.50000000000E+01 0.  1.
     100001    1    1    2    0    0 -0.17410455699E-01  0.17969565157E-02  0.13915799640E-01  0.50000500000E+01  0.50000000000E+01 0.  1.
</event>
<event>
 4    1  0.4897575E-001  0.5000050E+01  0.7818608E-02  0.2136455E+00
        -11   -1    0    0    0    0  0.00000000000E+00  0.00000000000E+00  0.50000499739E+01  0.50000500000E+01  0.51100000000E-03 0. -1.
         11   -1    0    0    0    0 -0.00000000000E+00 -0.00000000000E+00 -0.50000499739E+01  0.50000500000E+01  0.51100000000E-03 0.  1.
     100001    1    1    2    0    0  0.83759870574E-02 -0.56645404162E-02 -0.19943879329E-01  0.50000500000E+01  0.50000000000E+01 0.  1.
     100001    1    1    2    0    0 -0.83759870574E-02  0.56645404162E-02  0.19943879329E-01  0.50000500000E+01  0.50000000000E+01 0. -1.
</event>
<event>
 4    1  0.4897575E-001  0.5000050E+01  0.7818608E-02  0.2136455E+00
        -11   -1    0    0    0    0  0.00000000000E+00  0.00000000000E+00  0.50000499739E+01  0.50000500000E+01  0.51100000000E-03 0. -1.
         11   -1    0    0    0    0 -0.00000000000E+00 -0.00000000000E+00 -0.50000499739E+01  0.50000500000E+01  0.51100000000E-03 0.  1.
     100001    1    1    2    0    0  0.17557313419E-01  0.11356637749E-01  0.79227535947E-02  0.50000500000E+01  0.50000000000E+01 0. -1.
     100001    1    1    2    0    0 -0.17557313419E-01 -0.11356637749E-01 -0.79227535947E-02  0.50000500000E+01  0.50000000000E+01 0.  1.
</event>
<event>
 4    1  0.4897575E-001  0.5000050E+01  0.7818608E-02  0.2136455E+00
        -11   -1    0    0    0    0  0.00000000000E+00  0.00000000000E+00  0.50000499739E+01  0.50000500000E+01  0.51100000000E-03 0. -1.
         11   -1    0    0    0    0 -0.00000000000E+00 -0.00000000000E+00 -0.50000499739E+01  0.50000500000E+01  0.51100000000E-03 0.  1.
     100001    1    1    2    0    0  0.96958769476E-02  0.17539624579E-01  0.99173605276E-02  0.50000500000E+01  0.50000000000E+01 0.  1.
     100001    1    1    2    0    0 -0.96958769476E-02 -0.17539624579E-01 -0.99173605276E-02  0.50000500000E+01  0.50000000000E+01 0.  0.
</event>
<event>
 4    1  0.4897575E-001  0.5000050E+01  0.7818608E-02  0.2136455E+00
        -11   -1    0    0    0    0  0.00000000000E+00  0.00000000000E+00  0.50000499739E+01  0.50000500000E+01  0.51100000000E-03 0.  1.
         11   -1    0    0    0    0 -0.00000000000E+00 -0.00000000000E+00 -0.50000499739E+01  0.50000500000E+01  0.51100000000E-03 0. -1.
     100001    1    1    2    0    0  0.98079570365E-02 -0.16215517477E-01 -0.11868591818E-01  0.50000500000E+01  0.50000000000E+01 0.  0.
     100001    1    1    2    0    0 -0.98079570365E-02  0.16215517477E-01  0.11868591818E-01  0.50000500000E+01  0.50000000000E+01 0. -1.
</event>
<event>
 4    1  0.4897575E-001  0.5000050E+01  0.7818608E-02  0.2136455E+00
        -11   -1    0    0    0    0  0.00000000000E+00  0.00000000000E+00  0.50000499739E+01  0.50000500000E+01  0.51100000000E-03 0.  1.
         11   -1    0    0    0    0 -0.00000000000E+00 -0.00000000000E+00 -0.50000499739E+01  0.50000500000E+01  0.51100000000E-03 0. -1.
     100001    1    1    2    0    0  0.16302398539E-01 -0.67165979628E-02  0.13752149420E-01  0.50000500000E+01  0.50000000000E+01 0.  1.
     100001    1    1    2    0    0 -0.16302398539E-01  0.67165979628E-02 -0.13752149420E-01  0.50000500000E+01  0.50000000000E+01 0.  1.
</event>
<event>
 4    1  0.4897575E-001  0.5000050E+01  0.7818608E-02  0.2136455E+00
        -11   -1    0    0    0    0  0.00000000000E+00  0.00000000000E+00  0.50000499739E+01  0.50000500000E+01  0.51100000000E-03 0.  1.
         11   -1    0    0    0    0 -0.00000000000E+00 -0.00000000000E+00 -0.50000499739E+01  0.50000500000E+01  0.51100000000E-03 0. -1.
     100001    1    1    2    0    0  0.19102167768E-01  0.11266973553E-01  0.28574452746E-02  0.50000500000E+01  0.50000000000E+01 0.  1.
     100001    1    1    2    0    0 -0.19102167768E-01 -0.11266973553E-01 -0.28574452746E-02  0.50000500000E+01  0.50000000000E+01 0. -1.
</event>
<event>
 4    1  0.4897575E-001  0.5000050E+01  0.7818608E-02  0.2136455E+00
        -11   -1    0    0    0    0  0.00000000000E+00  0.00000000000E+00  0.50000499739E+01  0.50000500000E+01  0.51100000000E-03 0. -1.
         11   -1    0    0    0    0 -0.00000000000E+00 -0.00000000000E+00 -0.50000499739E+01  0.50000500000E+01  0.51100000000E-03 0.  1.
     100001    1    1    2    0    0  0.14766779943E-01 -0.15761059917E-01 -0.57908289926E-02  0.50000500000E+01  0.50000000000E+01 0. -1.
     100001    1    1    2    0    0 -0.14766779943E-01  0.15761059917E-01  0.57908289926E-02  0.50000500000E+01  0.50000000000E+01 0.  1.
</event>
<event>
 4    1  0.4897575E-001  0.5000050E+01  0.7818608E-02  0.2136455E+00
        -11   -1    0    0    0    0  0.00000000000E+00  0.00000000000E+00  0.50000499739E+01  0.50000500000E+01  0.51100000000E-03 0.  1.
         11   -1    0    0    0    0 -0.00000000000E+00 -0.00000000000E+00 -0.50000499739E+01  0.50000500000E+01  0.51100000000E-03 0. -1.
     100001    1    1    2    0    0 -0.17764091992E-01 -0.10725508213E-01  0.83308468517E-02  0.50000500000E+01  0.50000000000E+01 0.  0.
     100001    1    1    2    0    0  0.17764091992E-01  0.10725508213E-01 -0.83308468517E-02  0.50000500000E+01  0.50000000000E+01 0.  1.
</event>
<event>
 4    1  0.4897575E-001  0.5000050E+01  0.7818608E-02  0.2136455E+00
        -11   -1    0    0    0    0  0.00000000000E+00  0.00000000000E+00  0.50000499739E+01  0.50000500000E+01  0.51100000000E-03 0. -1.
         11   -1    0    0    0    0 -0.00000000000E+00 -0.00000000000E+00 -0.50000499739E+01  0.50000500000E+01  0.51100000000E-03 0.  1.
     100001    1    1    2    0    0  0.65591892328E-02 -0.18824055440E-01  0.10130867356E-01  0.50000500000E+01  0.50000000000E+01 0.  0.
     100001    1    1    2    0    0 -0.65591892328E-02  0.18824055440E-01 -0.10130867356E-01  0.50000500000E+01  0.50000000000E+01 0.  0.
</event>
<event>
 4    1  0.4897575E-001  0.5000050E+01  0.7818608E-02  0.2136455E+00
        -11   -1    0    0    0    0  0.00000000000E+00  0.00000000000E+00  0.50000499739E+01  0.50000500000E+01  0.51100000000E-03 0. -1.
         11   -1    0    0    0    0 -0.00000000000E+00 -0.00000000000E+00 -0.50000499739E+01  0.50000500000E+01  0.51100000000E-03 0.  1.
     100001    1    1    2    0    0 -0.17081782939E-01 -0.10398731029E-01 -0.10004078399E-01  0.50000500000E+01  0.50000000000E+01 0.  1.
     100001    1    1    2    0    0  0.17081782939E-01  0.10398731029E-01  0.10004078399E-01  0.50000500000E+01  0.50000000000E+01 0. -1.
</event>
<event>
 4    1  0.4897575E-001  0.5000050E+01  0.7818608E-02  0.2136455E+00
        -11   -1    0    0    0    0  0.00000000000E+00  0.00000000000E+00  0.50000499739E+01  0.50000500000E+01  0.51100000000E-03 0. -1.
         11   -1    0    0    0    0 -0.00000000000E+00 -0.00000000000E+00 -0.50000499739E+01  0.50000500000E+01  0.51100000000E-03 0.  1.
     100001    1    1    2    0    0  0.19605862834E-01  0.68263576122E-02 -0.83074354824E-02  0.50000500000E+01  0.50000000000E+01 0.  0.
     100001    1    1    2    0    0 -0.19605862834E-01 -0.68263576122E-02  0.83074354824E-02  0.50000500000E+01  0.50000000000E+01 0.  1.
</event>
<event>
 4    1  0.4897575E-001  0.5000050E+01  0.7818608E-02  0.2136455E+00
        -11   -1    0    0    0    0  0.00000000000E+00  0.00000000000E+00  0.50000499739E+01  0.50000500000E+01  0.51100000000E-03 0. -1.
         11   -1    0    0    0    0 -0.00000000000E+00 -0.00000000000E+00 -0.50000499739E+01  0.50000500000E+01  0.51100000000E-03 0.  1.
     100001    1    1    2    0    0  0.18788698521E-01  0.51216222740E-02 -0.10988916833E-01  0.50000500000E+01  0.50000000000E+01 0.  0.
     100001    1    1    2    0    0 -0.18788698521E-01 -0.51216222740E-02  0.10988916833E-01  0.50000500000E+01  0.50000000000E+01 0.  1.
</event>
<event>
 4    1  0.4897575E-001  0.5000050E+01  0.7818608E-02  0.2136455E+00
        -11   -1    0    0    0    0  0.00000000000E+00  0.00000000000E+00  0.50000499739E+01  0.50000500000E+01  0.51100000000E-03 0. -1.
         11   -1    0    0    0    0 -0.00000000000E+00 -0.00000000000E+00 -0.50000499739E+01  0.50000500000E+01  0.51100000000E-03 0.  1.
     100001    1    1    2    0    0 -0.21389678677E-01 -0.61968134531E-02  0.20208040773E-02  0.50000500000E+01  0.50000000000E+01 0. -1.
     100001    1    1    2    0    0  0.21389678677E-01  0.61968134531E-02 -0.20208040773E-02  0.50000500000E+01  0.50000000000E+01 0.  1.
</event>
<event>
 4    1  0.4897575E-001  0.5000050E+01  0.7818608E-02  0.2136455E+00
        -11   -1    0    0    0    0  0.00000000000E+00  0.00000000000E+00  0.50000499739E+01  0.50000500000E+01  0.51100000000E-03 0.  1.
         11   -1    0    0    0    0 -0.00000000000E+00 -0.00000000000E+00 -0.50000499739E+01  0.50000500000E+01  0.51100000000E-03 0. -1.
     100001    1    1    2    0    0 -0.14575708587E-01 -0.11644942757E-02 -0.16917303930E-01  0.50000500000E+01  0.50000000000E+01 0. -1.
     100001    1    1    2    0    0  0.14575708587E-01  0.11644942757E-02  0.16917303930E-01  0.50000500000E+01  0.50000000000E+01 0. -1.
</event>
<event>
 4    1  0.4897575E-001  0.5000050E+01  0.7818608E-02  0.2136455E+00
        -11   -1    0    0    0    0  0.00000000000E+00  0.00000000000E+00  0.50000499739E+01  0.50000500000E+01  0.51100000000E-03 0.  1.
         11   -1    0    0    0    0 -0.00000000000E+00 -0.00000000000E+00 -0.50000499739E+01  0.50000500000E+01  0.51100000000E-03 0. -1.
     100001    1    1    2    0    0 -0.15229076138E-01 -0.13096477392E-01 -0.98264958102E-02  0.50000500000E+01  0.50000000000E+01 0.  1.
     100001    1    1    2    0    0  0.15229076138E-01  0.13096477392E-01  0.98264958102E-02  0.50000500000E+01  0.50000000000E+01 0.  0.
</event>
<event>
 4    1  0.4897575E-001  0.5000050E+01  0.7818608E-02  0.2136455E+00
        -11   -1    0    0    0    0  0.00000000000E+00  0.00000000000E+00  0.50000499739E+01  0.50000500000E+01  0.51100000000E-03 0. -1.
         11   -1    0    0    0    0 -0.00000000000E+00 -0.00000000000E+00 -0.50000499739E+01  0.50000500000E+01  0.51100000000E-03 0.  1.
     100001    1    1    2    0    0 -0.19772252967E-01 -0.56436262514E-02 -0.87869218361E-02  0.50000500000E+01  0.50000000000E+01 0. -1.
     100001    1    1    2    0    0  0.19772252967E-01  0.56436262514E-02  0.87869218361E-02  0.50000500000E+01  0.50000000000E+01 0.  0.
</event>
<event>
 4    1  0.4897575E-001  0.5000050E+01  0.7818608E-02  0.2136455E+00
        -11   -1    0    0    0    0  0.00000000000E+00  0.00000000000E+00  0.50000499739E+01  0.50000500000E+01  0.51100000000E-03 0. -1.
         11   -1    0    0    0    0 -0.00000000000E+00 -0.00000000000E+00 -0.50000499739E+01  0.50000500000E+01  0.51100000000E-03 0.  1.
     100001    1    1    2    0    0 -0.23959052850E-02 -0.50522636886E-02  0.21650329547E-01  0.50000500000E+01  0.50000000000E+01 0. -1.
     100001    1    1    2    0    0  0.23959052850E-02  0.50522636886E-02 -0.21650329547E-01  0.50000500000E+01  0.50000000000E+01 0.  0.
</event>
<event>
 4    1  0.4897575E-001  0.5000050E+01  0.7818608E-02  0.2136455E+00
        -11   -1    0    0    0    0  0.00000000000E+00  0.00000000000E+00  0.50000499739E+01  0.50000500000E+01  0.51100000000E-03 0.  1.
         11   -1    0    0    0    0 -0.00000000000E+00 -0.00000000000E+00 -0.50000499739E+01  0.50000500000E+01  0.51100000000E-03 0. -1.
     100001    1    1    2    0    0 -0.19053424215E-01 -0.29407347644E-02  0.11327912638E-01  0.50000500000E+01  0.50000000000E+01 0. -1.
     100001    1    1    2    0    0  0.19053424215E-01  0.29407347644E-02 -0.11327912638E-01  0.50000500000E+01  0.50000000000E+01 0.  0.
</event>
<event>
 4    1  0.4897575E-001  0.5000050E+01  0.7818608E-02  0.2136455E+00
        -11   -1    0    0    0    0  0.00000000000E+00  0.00000000000E+00  0.50000499739E+01  0.50000500000E+01  0.51100000000E-03 0.  1.
         11   -1    0    0    0    0 -0.00000000000E+00 -0.00000000000E+00 -0.50000499739E+01  0.50000500000E+01  0.51100000000E-03 0. -1.
     100001    1    1    2    0    0  0.16363284390E-01 -0.15049421742E-01 -0.24000685811E-02  0.50000500000E+01  0.50000000000E+01 0. -1.
     100001    1    1    2    0    0 -0.16363284390E-01  0.15049421742E-01  0.24000685811E-02  0.50000500000E+01  0.50000000000E+01 0.  1.
</event>
<event>
 4    1  0.4897575E-001  0.5000050E+01  0.7818608E-02  0.2136455E+00
        -11   -1    0    0    0    0  0.00000000000E+00  0.00000000000E+00  0.50000499739E+01  0.50000500000E+01  0.51100000000E-03 0.  1.
         11   -1    0    0    0    0 -0.00000000000E+00 -0.00000000000E+00 -0.50000499739E+01  0.50000500000E+01  0.51100000000E-03 0. -1.
     100001    1    1    2    0    0 -0.16794146963E-01  0.29688299833E-02  0.14461852451E-01  0.50000500000E+01  0.50000000000E+01 0.  1.
     100001    1    1    2    0    0  0.16794146963E-01 -0.29688299833E-02 -0.14461852451E-01  0.50000500000E+01  0.50000000000E+01 0. -1.
</event>
<event>
 4    1  0.4897575E-001  0.5000050E+01  0.7818608E-02  0.2136455E+00
        -11   -1    0    0    0    0  0.00000000000E+00  0.00000000000E+00  0.50000499739E+01  0.50000500000E+01  0.51100000000E-03 0.  1.
         11   -1    0    0    0    0 -0.00000000000E+00 -0.00000000000E+00 -0.50000499739E+01  0.50000500000E+01  0.51100000000E-03 0. -1.
     100001    1    1    2    0    0 -0.20646321763E-01  0.69736913468E-02  0.50099427782E-02  0.50000500000E+01  0.50000000000E+01 0. -1.
     100001    1    1    2    0    0  0.20646321763E-01 -0.69736913468E-02 -0.50099427782E-02  0.50000500000E+01  0.50000000000E+01 0.  0.
</event>
<event>
 4    1  0.4897575E-001  0.5000050E+01  0.7818608E-02  0.2136455E+00
        -11   -1    0    0    0    0  0.00000000000E+00  0.00000000000E+00  0.50000499739E+01  0.50000500000E+01  0.51100000000E-03 0.  1.
         11   -1    0    0    0    0 -0.00000000000E+00 -0.00000000000E+00 -0.50000499739E+01  0.50000500000E+01  0.51100000000E-03 0. -1.
     100001    1    1    2    0    0 -0.10613759196E-02  0.65603152663E-02  0.21350368727E-01  0.50000500000E+01  0.50000000000E+01 0.  0.
     100001    1    1    2    0    0  0.10613759196E-02 -0.65603152663E-02 -0.21350368727E-01  0.50000500000E+01  0.50000000000E+01 0. -1.
</event>
<event>
 4    1  0.4897575E-001  0.5000050E+01  0.7818608E-02  0.2136455E+00
        -11   -1    0    0    0    0  0.00000000000E+00  0.00000000000E+00  0.50000499739E+01  0.50000500000E+01  0.51100000000E-03 0. -1.
         11   -1    0    0    0    0 -0.00000000000E+00 -0.00000000000E+00 -0.50000499739E+01  0.50000500000E+01  0.51100000000E-03 0.  1.
     100001    1    1    2    0    0 -0.22513758387E-02 -0.22245689978E-01  0.25116573915E-03  0.50000500000E+01  0.50000000000E+01 0.  0.
     100001    1    1    2    0    0  0.22513758387E-02  0.22245689978E-01 -0.25116573915E-03  0.50000500000E+01  0.50000000000E+01 0.  1.
</event>
<event>
 4    1  0.4897575E-001  0.5000050E+01  0.7818608E-02  0.2136455E+00
        -11   -1    0    0    0    0  0.00000000000E+00  0.00000000000E+00  0.50000499739E+01  0.50000500000E+01  0.51100000000E-03 0.  1.
         11   -1    0    0    0    0 -0.00000000000E+00 -0.00000000000E+00 -0.50000499739E+01  0.50000500000E+01  0.51100000000E-03 0. -1.
     100001    1    1    2    0    0  0.19396147177E-01 -0.68406332612E-02 -0.87748339741E-02  0.50000500000E+01  0.50000000000E+01 0. -1.
     100001    1    1    2    0    0 -0.19396147177E-01  0.68406332612E-02  0.87748339741E-02  0.50000500000E+01  0.50000000000E+01 0.  1.
</event>
<event>
 4    1  0.4897575E-001  0.5000050E+01  0.7818608E-02  0.2136455E+00
        -11   -1    0    0    0    0  0.00000000000E+00  0.00000000000E+00  0.50000499739E+01  0.50000500000E+01  0.51100000000E-03 0. -1.
         11   -1    0    0    0    0 -0.00000000000E+00 -0.00000000000E+00 -0.50000499739E+01  0.50000500000E+01  0.51100000000E-03 0.  1.
     100001    1    1    2    0    0 -0.82621311124E-02 -0.90249361887E-02 -0.18716041683E-01  0.50000500000E+01  0.50000000000E+01 0. -1.
     100001    1    1    2    0    0  0.82621311124E-02  0.90249361887E-02  0.18716041683E-01  0.50000500000E+01  0.50000000000E+01 0. -1.
</event>
<event>
 4    1  0.4897575E-001  0.5000050E+01  0.7818608E-02  0.2136455E+00
        -11   -1    0    0    0    0  0.00000000000E+00  0.00000000000E+00  0.50000499739E+01  0.50000500000E+01  0.51100000000E-03 0.  1.
         11   -1    0    0    0    0 -0.00000000000E+00 -0.00000000000E+00 -0.50000499739E+01  0.50000500000E+01  0.51100000000E-03 0. -1.
     100001    1    1    2    0    0  0.59878287540E-02 -0.77291225053E-02  0.20109924717E-01  0.50000500000E+01  0.50000000000E+01 0.  1.
     100001    1    1    2    0    0 -0.59878287540E-02  0.77291225053E-02 -0.20109924717E-01  0.50000500000E+01  0.50000000000E+01 0.  0.
</event>
<event>
 4    1  0.4897575E-001  0.5000050E+01  0.7818608E-02  0.2136455E+00
        -11   -1    0    0    0    0  0.00000000000E+00  0.00000000000E+00  0.50000499739E+01  0.50000500000E+01  0.51100000000E-03 0. -1.
         11   -1    0    0    0    0 -0.00000000000E+00 -0.00000000000E+00 -0.50000499739E+01  0.50000500000E+01  0.51100000000E-03 0.  1.
     100001    1    1    2    0    0 -0.50272950268E-02 -0.18955426769E-01 -0.10743398006E-01  0.50000500000E+01  0.50000000000E+01 0.  0.
     100001    1    1    2    0    0  0.50272950268E-02  0.18955426769E-01  0.10743398006E-01  0.50000500000E+01  0.50000000000E+01 0.  0.
</event>
<event>
 4    1  0.4897575E-001  0.5000050E+01  0.7818608E-02  0.2136455E+00
        -11   -1    0    0    0    0  0.00000000000E+00  0.00000000000E+00  0.50000499739E+01  0.50000500000E+01  0.51100000000E-03 0. -1.
         11   -1    0    0    0    0 -0.00000000000E+00 -0.00000000000E+00 -0.50000499739E+01  0.50000500000E+01  0.51100000000E-03 0.  1.
     100001    1    1    2    0    0 -0.65668290416E-02  0.20260893670E-01 -0.68099518380E-02  0.50000500000E+01  0.50000000000E+01 0.  1.
     100001    1    1    2    0    0  0.65668290416E-02 -0.20260893670E-01  0.68099518380E-02  0.50000500000E+01  0.50000000000E+01 0.  0.
</event>
<event>
 4    1  0.4897575E-001  0.5000050E+01  0.7818608E-02  0.2136455E+00
        -11   -1    0    0    0    0  0.00000000000E+00  0.00000000000E+00  0.50000499739E+01  0.50000500000E+01  0.51100000000E-03 0. -1.
         11   -1    0    0    0    0 -0.00000000000E+00 -0.00000000000E+00 -0.50000499739E+01  0.50000500000E+01  0.51100000000E-03 0.  1.
     100001    1    1    2    0    0  0.74026474692E-02 -0.48118238127E-04 -0.21099786612E-01  0.50000500000E+01  0.50000000000E+01 0.  1.
     100001    1    1    2    0    0 -0.74026474692E-02  0.48118238127E-04  0.21099786612E-01  0.50000500000E+01  0.50000000000E+01 0.  0.
</event>
<event>
 4    1  0.4897575E-001  0.5000050E+01  0.7818608E-02  0.2136455E+00
        -11   -1    0    0    0    0  0.00000000000E+00  0.00000000000E+00  0.50000499739E+01  0.50000500000E+01  0.51100000000E-03 0. -1.
         11   -1    0    0    0    0 -0.00000000000E+00 -0.00000000000E+00 -0.50000499739E+01  0.50000500000E+01  0.51100000000E-03 0.  1.
     100001    1    1    2    0    0 -0.18052167311E-01  0.11257099876E-01  0.68847264118E-02  0.50000500000E+01  0.50000000000E+01 0. -1.
     100001    1    1    2    0    0  0.18052167311E-01 -0.11257099876E-01 -0.68847264118E-02  0.50000500000E+01  0.50000000000E+01 0.  0.
</event>
<event>
 4    1  0.4897575E-001  0.5000050E+01  0.7818608E-02  0.2136455E+00
        -11   -1    0    0    0    0  0.00000000000E+00  0.00000000000E+00  0.50000499739E+01  0.50000500000E+01  0.51100000000E-03 0.  1.
         11   -1    0    0    0    0 -0.00000000000E+00 -0.00000000000E+00 -0.50000499739E+01  0.50000500000E+01  0.51100000000E-03 0. -1.
     100001    1    1    2    0    0 -0.84122352119E-02 -0.12695537181E-01  0.16372542088E-01  0.50000500000E+01  0.50000000000E+01 0.  1.
     100001    1    1    2    0    0  0.84122352119E-02  0.12695537181E-01 -0.16372542088E-01  0.50000500000E+01  0.50000000000E+01 0. -1.
</event>
<event>
 4    1  0.4897575E-001  0.5000050E+01  0.7818608E-02  0.2136455E+00
        -11   -1    0    0    0    0  0.00000000000E+00  0.00000000000E+00  0.50000499739E+01  0.50000500000E+01  0.51100000000E-03 0. -1.
         11   -1    0    0    0    0 -0.00000000000E+00 -0.00000000000E+00 -0.50000499739E+01  0.50000500000E+01  0.51100000000E-03 0.  1.
     100001    1    1    2    0    0 -0.46316611093E-02  0.21811252064E-01  0.16791363191E-02  0.50000500000E+01  0.50000000000E+01 0.  0.
     100001    1    1    2    0    0  0.46316611093E-02 -0.21811252064E-01 -0.16791363191E-02  0.50000500000E+01  0.50000000000E+01 0. -1.
</event>
<event>
 4    1  0.4897575E-001  0.5000050E+01  0.7818608E-02  0.2136455E+00
        -11   -1    0    0    0    0  0.00000000000E+00  0.00000000000E+00  0.50000499739E+01  0.50000500000E+01  0.51100000000E-03 0.  1.
         11   -1    0    0    0    0 -0.00000000000E+00 -0.00000000000E+00 -0.50000499739E+01  0.50000500000E+01  0.51100000000E-03 0. -1.
     100001    1    1    2    0    0  0.21446145821E-01 -0.38205911376E-02 -0.50466238982E-02  0.50000500000E+01  0.50000000000E+01 0. -1.
     100001    1    1    2    0    0 -0.21446145821E-01  0.38205911376E-02  0.50466238982E-02  0.50000500000E+01  0.50000000000E+01 0.  1.
</event>
<event>
 4    1  0.4897575E-001  0.5000050E+01  0.7818608E-02  0.2136455E+00
        -11   -1    0    0    0    0  0.00000000000E+00  0.00000000000E+00  0.50000499739E+01  0.50000500000E+01  0.51100000000E-03 0. -1.
         11   -1    0    0    0    0 -0.00000000000E+00 -0.00000000000E+00 -0.50000499739E+01  0.50000500000E+01  0.51100000000E-03 0.  1.
     100001    1    1    2    0    0  0.11344205122E-01 -0.23022271019E-02 -0.19131420766E-01  0.50000500000E+01  0.50000000000E+01 0.  1.
     100001    1    1    2    0    0 -0.11344205122E-01  0.23022271019E-02  0.19131420766E-01  0.50000500000E+01  0.50000000000E+01 0. -1.
</event>
<event>
 4    1  0.4897575E-001  0.5000050E+01  0.7818608E-02  0.2136455E+00
        -11   -1    0    0    0    0  0.00000000000E+00  0.00000000000E+00  0.50000499739E+01  0.50000500000E+01  0.51100000000E-03 0. -1.
         11   -1    0    0    0    0 -0.00000000000E+00 -0.00000000000E+00 -0.50000499739E+01  0.50000500000E+01  0.51100000000E-03 0.  1.
     100001    1    1    2    0    0 -0.44838888414E-02 -0.11078378166E-01  0.18898856528E-01  0.50000500000E+01  0.50000000000E+01 0.  0.
     100001    1    1    2    0    0  0.44838888414E-02  0.11078378166E-01 -0.18898856528E-01  0.50000500000E+01  0.50000000000E+01 0.  0.
</event>
<event>
 4    1  0.4897575E-001  0.5000050E+01  0.7818608E-02  0.2136455E+00
        -11   -1    0    0    0    0  0.00000000000E+00  0.00000000000E+00  0.50000499739E+01  0.50000500000E+01  0.51100000000E-03 0.  1.
         11   -1    0    0    0    0 -0.00000000000E+00 -0.00000000000E+00 -0.50000499739E+01  0.50000500000E+01  0.51100000000E-03 0. -1.
     100001    1    1    2    0    0 -0.22254236920E-01  0.13626682057E-02 -0.17013448997E-02  0.50000500000E+01  0.50000000000E+01 0.  0.
     100001    1    1    2    0    0  0.22254236920E-01 -0.13626682057E-02  0.17013448997E-02  0.50000500000E+01  0.50000000000E+01 0. -1.
</event>
<event>
 4    1  0.4897575E-001  0.5000050E+01  0.7818608E-02  0.2136455E+00
        -11   -1    0    0    0    0  0.00000000000E+00  0.00000000000E+00  0.50000499739E+01  0.50000500000E+01  0.51100000000E-03 0. -1.
         11   -1    0    0    0    0 -0.00000000000E+00 -0.00000000000E+00 -0.50000499739E+01  0.50000500000E+01  0.51100000000E-03 0.  1.
     100001    1    1    2    0    0  0.18248125869E-01  0.47324978535E-02 -0.12025467406E-01  0.50000500000E+01  0.50000000000E+01 0.  1.
     100001    1    1    2    0    0 -0.18248125869E-01 -0.47324978535E-02  0.12025467406E-01  0.50000500000E+01  0.50000000000E+01 0.  1.
</event>
<event>
 4    1  0.4897575E-001  0.5000050E+01  0.7818608E-02  0.2136455E+00
        -11   -1    0    0    0    0  0.00000000000E+00  0.00000000000E+00  0.50000499739E+01  0.50000500000E+01  0.51100000000E-03 0. -1.
         11   -1    0    0    0    0 -0.00000000000E+00 -0.00000000000E+00 -0.50000499739E+01  0.50000500000E+01  0.51100000000E-03 0.  1.
     100001    1    1    2    0    0 -0.20800876255E-01  0.68679423833E-02 -0.44897009313E-02  0.50000500000E+01  0.50000000000E+01 0.  1.
     100001    1    1    2    0    0  0.20800876255E-01 -0.68679423833E-02  0.44897009313E-02  0.50000500000E+01  0.50000000000E+01 0. -1.
</event>
<event>
 4    1  0.4897575E-001  0.5000050E+01  0.7818608E-02  0.2136455E+00
        -11   -1    0    0    0    0  0.00000000000E+00  0.00000000000E+00  0.50000499739E+01  0.50000500000E+01  0.51100000000E-03 0. -1.
         11   -1    0    0    0    0 -0.00000000000E+00 -0.00000000000E+00 -0.50000499739E+01  0.50000500000E+01  0.51100000000E-03 0.  1.
     100001    1    1    2    0    0  0.19990240510E-01 -0.84917613337E-02 -0.53181551127E-02  0.50000500000E+01  0.50000000000E+01 0.  1.
     100001    1    1    2    0    0 -0.19990240510E-01  0.84917613337E-02  0.53181551127E-02  0.50000500000E+01  0.50000000000E+01 0. -1.
</event>
<event>
 4    1  0.4897575E-001  0.5000050E+01  0.7818608E-02  0.2136455E+00
        -11   -1    0    0    0    0  0.00000000000E+00  0.00000000000E+00  0.50000499739E+01  0.50000500000E+01  0.51100000000E-03 0. -1.
         11   -1    0    0    0    0 -0.00000000000E+00 -0.00000000000E+00 -0.50000499739E+01  0.50000500000E+01  0.51100000000E-03 0.  1.
     100001    1    1    2    0    0 -0.40004151832E-02  0.88742297415E-02 -0.20130753211E-01  0.50000500000E+01  0.50000000000E+01 0.  1.
     100001    1    1    2    0    0  0.40004151832E-02 -0.88742297415E-02  0.20130753211E-01  0.50000500000E+01  0.50000000000E+01 0.  1.
</event>
<event>
 4    1  0.4897575E-001  0.5000050E+01  0.7818608E-02  0.2136455E+00
        -11   -1    0    0    0    0  0.00000000000E+00  0.00000000000E+00  0.50000499739E+01  0.50000500000E+01  0.51100000000E-03 0. -1.
         11   -1    0    0    0    0 -0.00000000000E+00 -0.00000000000E+00 -0.50000499739E+01  0.50000500000E+01  0.51100000000E-03 0.  1.
     100001    1    1    2    0    0  0.18539277690E-01  0.39886796382E-02  0.11848549172E-01  0.50000500000E+01  0.50000000000E+01 0. -1.
     100001    1    1    2    0    0 -0.18539277690E-01 -0.39886796382E-02 -0.11848549172E-01  0.50000500000E+01  0.50000000000E+01 0.  1.
</event>
<event>
 4    1  0.4897575E-001  0.5000050E+01  0.7818608E-02  0.2136455E+00
        -11   -1    0    0    0    0  0.00000000000E+00  0.00000000000E+00  0.50000499739E+01  0.50000500000E+01  0.51100000000E-03 0.  1.
         11   -1    0    0    0    0 -0.00000000000E+00 -0.00000000000E+00 -0.50000499739E+01  0.50000500000E+01  0.51100000000E-03 0. -1.
     100001    1    1    2    0    0 -0.19486215258E-02 -0.62591478232E-02 -0.21378223562E-01  0.50000500000E+01  0.50000000000E+01 0. -1.
     100001    1    1    2    0    0  0.19486215258E-02  0.62591478232E-02  0.21378223562E-01  0.50000500000E+01  0.50000000000E+01 0.  1.
</event>
<event>
 4    1  0.4897575E-001  0.5000050E+01  0.7818608E-02  0.2136455E+00
        -11   -1    0    0    0    0  0.00000000000E+00  0.00000000000E+00  0.50000499739E+01  0.50000500000E+01  0.51100000000E-03 0. -1.
         11   -1    0    0    0    0 -0.00000000000E+00 -0.00000000000E+00 -0.50000499739E+01  0.50000500000E+01  0.51100000000E-03 0.  1.
     100001    1    1    2    0    0  0.36559741135E-02  0.21984145414E-01 -0.18258432815E-02  0.50000500000E+01  0.50000000000E+01 0. -1.
     100001    1    1    2    0    0 -0.36559741135E-02 -0.21984145414E-01  0.18258432815E-02  0.50000500000E+01  0.50000000000E+01 0.  1.
</event>
<event>
 4    1  0.4897575E-001  0.5000050E+01  0.7818608E-02  0.2136455E+00
        -11   -1    0    0    0    0  0.00000000000E+00  0.00000000000E+00  0.50000499739E+01  0.50000500000E+01  0.51100000000E-03 0. -1.
         11   -1    0    0    0    0 -0.00000000000E+00 -0.00000000000E+00 -0.50000499739E+01  0.50000500000E+01  0.51100000000E-03 0.  1.
     100001    1    1    2    0    0 -0.20943287830E-01  0.76086939930E-02 -0.18678786357E-02  0.50000500000E+01  0.50000000000E+01 0.  0.
     100001    1    1    2    0    0  0.20943287830E-01 -0.76086939930E-02  0.18678786357E-02  0.50000500000E+01  0.50000000000E+01 0.  1.
</event>
<event>
 4    1  0.4897575E-001  0.5000050E+01  0.7818608E-02  0.2136455E+00
        -11   -1    0    0    0    0  0.00000000000E+00  0.00000000000E+00  0.50000499739E+01  0.50000500000E+01  0.51100000000E-03 0.  1.
         11   -1    0    0    0    0 -0.00000000000E+00 -0.00000000000E+00 -0.50000499739E+01  0.50000500000E+01  0.51100000000E-03 0. -1.
     100001    1    1    2    0    0  0.16401237409E-01 -0.10675641880E-01 -0.10818159820E-01  0.50000500000E+01  0.50000000000E+01 0.  1.
     100001    1    1    2    0    0 -0.16401237409E-01  0.10675641880E-01  0.10818159820E-01  0.50000500000E+01  0.50000000000E+01 0. -1.
</event>
<event>
 4    1  0.4897575E-001  0.5000050E+01  0.7818608E-02  0.2136455E+00
        -11   -1    0    0    0    0  0.00000000000E+00  0.00000000000E+00  0.50000499739E+01  0.50000500000E+01  0.51100000000E-03 0. -1.
         11   -1    0    0    0    0 -0.00000000000E+00 -0.00000000000E+00 -0.50000499739E+01  0.50000500000E+01  0.51100000000E-03 0.  1.
     100001    1    1    2    0    0  0.13811190400E-01  0.12127243245E-02  0.17543740178E-01  0.50000500000E+01  0.50000000000E+01 0.  0.
     100001    1    1    2    0    0 -0.13811190400E-01 -0.12127243245E-02 -0.17543740178E-01  0.50000500000E+01  0.50000000000E+01 0.  0.
</event>
<event>
 4    1  0.4897575E-001  0.5000050E+01  0.7818608E-02  0.2136455E+00
        -11   -1    0    0    0    0  0.00000000000E+00  0.00000000000E+00  0.50000499739E+01  0.50000500000E+01  0.51100000000E-03 0. -1.
         11   -1    0    0    0    0 -0.00000000000E+00 -0.00000000000E+00 -0.50000499739E+01  0.50000500000E+01  0.51100000000E-03 0.  1.
     100001    1    1    2    0    0  0.18972495407E-01 -0.94493043494E-02 -0.71244343887E-02  0.50000500000E+01  0.50000000000E+01 0. -1.
     100001    1    1    2    0    0 -0.18972495407E-01  0.94493043494E-02  0.71244343887E-02  0.50000500000E+01  0.50000000000E+01 0.  0.
</event>
<event>
 4    1  0.4897575E-001  0.5000050E+01  0.7818608E-02  0.2136455E+00
        -11   -1    0    0    0    0  0.00000000000E+00  0.00000000000E+00  0.50000499739E+01  0.50000500000E+01  0.51100000000E-03 0.  1.
         11   -1    0    0    0    0 -0.00000000000E+00 -0.00000000000E+00 -0.50000499739E+01  0.50000500000E+01  0.51100000000E-03 0. -1.
     100001    1    1    2    0    0 -0.21810836068E-01  0.48143296854E-02  0.10545898197E-02  0.50000500000E+01  0.50000000000E+01 0.  0.
     100001    1    1    2    0    0  0.21810836068E-01 -0.48143296854E-02 -0.10545898197E-02  0.50000500000E+01  0.50000000000E+01 0.  1.
</event>
<event>
 4    1  0.4897575E-001  0.5000050E+01  0.7818608E-02  0.2136455E+00
        -11   -1    0    0    0    0  0.00000000000E+00  0.00000000000E+00  0.50000499739E+01  0.50000500000E+01  0.51100000000E-03 0. -1.
         11   -1    0    0    0    0 -0.00000000000E+00 -0.00000000000E+00 -0.50000499739E+01  0.50000500000E+01  0.51100000000E-03 0.  1.
     100001    1    1    2    0    0  0.21474368549E-01 -0.53879015165E-02  0.31344078653E-02  0.50000500000E+01  0.50000000000E+01 0.  0.
     100001    1    1    2    0    0 -0.21474368549E-01  0.53879015165E-02 -0.31344078653E-02  0.50000500000E+01  0.50000000000E+01 0.  0.
</event>
<event>
 4    1  0.4897575E-001  0.5000050E+01  0.7818608E-02  0.2136455E+00
        -11   -1    0    0    0    0  0.00000000000E+00  0.00000000000E+00  0.50000499739E+01  0.50000500000E+01  0.51100000000E-03 0. -1.
         11   -1    0    0    0    0 -0.00000000000E+00 -0.00000000000E+00 -0.50000499739E+01  0.50000500000E+01  0.51100000000E-03 0.  1.
     100001    1    1    2    0    0  0.22563420867E-02 -0.21889854570E-01 -0.39680835778E-02  0.50000500000E+01  0.50000000000E+01 0.  0.
     100001    1    1    2    0    0 -0.22563420867E-02  0.21889854570E-01  0.39680835778E-02  0.50000500000E+01  0.50000000000E+01 0.  1.
</event>
<event>
 4    1  0.4897575E-001  0.5000050E+01  0.7818608E-02  0.2136455E+00
        -11   -1    0    0    0    0  0.00000000000E+00  0.00000000000E+00  0.50000499739E+01  0.50000500000E+01  0.51100000000E-03 0.  1.
         11   -1    0    0    0    0 -0.00000000000E+00 -0.00000000000E+00 -0.50000499739E+01  0.50000500000E+01  0.51100000000E-03 0. -1.
     100001    1    1    2    0    0 -0.17807019631E-02 -0.16879252070E-01  0.14557556459E-01  0.50000500000E+01  0.50000000000E+01 0.  1.
     100001    1    1    2    0    0  0.17807019631E-02  0.16879252070E-01 -0.14557556459E-01  0.50000500000E+01  0.50000000000E+01 0.  1.
</event>
<event>
 4    1  0.4897575E-001  0.5000050E+01  0.7818608E-02  0.2136455E+00
        -11   -1    0    0    0    0  0.00000000000E+00  0.00000000000E+00  0.50000499739E+01  0.50000500000E+01  0.51100000000E-03 0. -1.
         11   -1    0    0    0    0 -0.00000000000E+00 -0.00000000000E+00 -0.50000499739E+01  0.50000500000E+01  0.51100000000E-03 0.  1.
     100001    1    1    2    0    0 -0.52387167535E-02 -0.19989751882E-01  0.85421406253E-02  0.50000500000E+01  0.50000000000E+01 0. -1.
     100001    1    1    2    0    0  0.52387167535E-02  0.19989751882E-01 -0.85421406253E-02  0.50000500000E+01  0.50000000000E+01 0. -1.
</event>
<event>
 4    1  0.4897575E-001  0.5000050E+01  0.7818608E-02  0.2136455E+00
        -11   -1    0    0    0    0  0.00000000000E+00  0.00000000000E+00  0.50000499739E+01  0.50000500000E+01  0.51100000000E-03 0. -1.
         11   -1    0    0    0    0 -0.00000000000E+00 -0.00000000000E+00 -0.50000499739E+01  0.50000500000E+01  0.51100000000E-03 0.  1.
     100001    1    1    2    0    0 -0.17854049033E-03 -0.19021221902E-02  0.22278971127E-01  0.50000500000E+01  0.50000000000E+01 0.  0.
     100001    1    1    2    0    0  0.17854049033E-03  0.19021221902E-02 -0.22278971127E-01  0.50000500000E+01  0.50000000000E+01 0.  1.
</event>
<event>
 4    1  0.4897575E-001  0.5000050E+01  0.7818608E-02  0.2136455E+00
        -11   -1    0    0    0    0  0.00000000000E+00  0.00000000000E+00  0.50000499739E+01  0.50000500000E+01  0.51100000000E-03 0. -1.
         11   -1    0    0    0    0 -0.00000000000E+00 -0.00000000000E+00 -0.50000499739E+01  0.50000500000E+01  0.51100000000E-03 0.  1.
     100001    1    1    2    0    0 -0.61922660359E-02  0.14852689159E-01 -0.15525977138E-01  0.50000500000E+01  0.50000000000E+01 0. -1.
     100001    1    1    2    0    0  0.61922660359E-02 -0.14852689159E-01  0.15525977138E-01  0.50000500000E+01  0.50000000000E+01 0.  0.
</event>
<event>
 4    1  0.4897575E-001  0.5000050E+01  0.7818608E-02  0.2136455E+00
        -11   -1    0    0    0    0  0.00000000000E+00  0.00000000000E+00  0.50000499739E+01  0.50000500000E+01  0.51100000000E-03 0. -1.
         11   -1    0    0    0    0 -0.00000000000E+00 -0.00000000000E+00 -0.50000499739E+01  0.50000500000E+01  0.51100000000E-03 0.  1.
     100001    1    1    2    0    0 -0.11053676518E-01 -0.17324014136E-01 -0.88146054731E-02  0.50000500000E+01  0.50000000000E+01 0.  0.
     100001    1    1    2    0    0  0.11053676518E-01  0.17324014136E-01  0.88146054731E-02  0.50000500000E+01  0.50000000000E+01 0.  0.
</event>
<event>
 4    1  0.4897575E-001  0.5000050E+01  0.7818608E-02  0.2136455E+00
        -11   -1    0    0    0    0  0.00000000000E+00  0.00000000000E+00  0.50000499739E+01  0.50000500000E+01  0.51100000000E-03 0.  1.
         11   -1    0    0    0    0 -0.00000000000E+00 -0.00000000000E+00 -0.50000499739E+01  0.50000500000E+01  0.51100000000E-03 0. -1.
     100001    1    1    2    0    0  0.77303336144E-02 -0.18185337778E-01  0.10466037077E-01  0.50000500000E+01  0.50000000000E+01 0.  1.
     100001    1    1    2    0    0 -0.77303336144E-02  0.18185337778E-01 -0.10466037077E-01  0.50000500000E+01  0.50000000000E+01 0. -1.
</event>
<event>
 4    1  0.4897575E-001  0.5000050E+01  0.7818608E-02  0.2136455E+00
        -11   -1    0    0    0    0  0.00000000000E+00  0.00000000000E+00  0.50000499739E+01  0.50000500000E+01  0.51100000000E-03 0. -1.
         11   -1    0    0    0    0 -0.00000000000E+00 -0.00000000000E+00 -0.50000499739E+01  0.50000500000E+01  0.51100000000E-03 0.  1.
     100001    1    1    2    0    0 -0.16058953939E-01  0.23389796778E-02  0.15383161979E-01  0.50000500000E+01  0.50000000000E+01 0. -1.
     100001    1    1    2    0    0  0.16058953939E-01 -0.23389796778E-02 -0.15383161979E-01  0.50000500000E+01  0.50000000000E+01 0. -1.
</event>
<event>
 4    1  0.4897575E-001  0.5000050E+01  0.7818608E-02  0.2136455E+00
        -11   -1    0    0    0    0  0.00000000000E+00  0.00000000000E+00  0.50000499739E+01  0.50000500000E+01  0.51100000000E-03 0.  1.
         11   -1    0    0    0    0 -0.00000000000E+00 -0.00000000000E+00 -0.50000499739E+01  0.50000500000E+01  0.51100000000E-03 0. -1.
     100001    1    1    2    0    0 -0.33644857815E-02  0.21999341849E-01 -0.21706435995E-02  0.50000500000E+01  0.50000000000E+01 0. -1.
     100001    1    1    2    0    0  0.33644857815E-02 -0.21999341849E-01  0.21706435995E-02  0.50000500000E+01  0.50000000000E+01 0.  0.
</event>
<event>
 4    1  0.4897575E-001  0.5000050E+01  0.7818608E-02  0.2136455E+00
        -11   -1    0    0    0    0  0.00000000000E+00  0.00000000000E+00  0.50000499739E+01  0.50000500000E+01  0.51100000000E-03 0.  1.
         11   -1    0    0    0    0 -0.00000000000E+00 -0.00000000000E+00 -0.50000499739E+01  0.50000500000E+01  0.51100000000E-03 0. -1.
     100001    1    1    2    0    0 -0.74258809116E-02 -0.19167999667E-01  0.88003739381E-02  0.50000500000E+01  0.50000000000E+01 0.  1.
     100001    1    1    2    0    0  0.74258809116E-02  0.19167999667E-01 -0.88003739381E-02  0.50000500000E+01  0.50000000000E+01 0. -1.
</event>
<event>
 4    1  0.4897575E-001  0.5000050E+01  0.7818608E-02  0.2136455E+00
        -11   -1    0    0    0    0  0.00000000000E+00  0.00000000000E+00  0.50000499739E+01  0.50000500000E+01  0.51100000000E-03 0.  1.
         11   -1    0    0    0    0 -0.00000000000E+00 -0.00000000000E+00 -0.50000499739E+01  0.50000500000E+01  0.51100000000E-03 0. -1.
     100001    1    1    2    0    0  0.20681317445E-01 -0.19392044977E-03 -0.84998825645E-02  0.50000500000E+01  0.50000000000E+01 0. -1.
     100001    1    1    2    0    0 -0.20681317445E-01  0.19392044977E-03  0.84998825645E-02  0.50000500000E+01  0.50000000000E+01 0.  1.
</event>
<event>
 4    1  0.4897575E-001  0.5000050E+01  0.7818608E-02  0.2136455E+00
        -11   -1    0    0    0    0  0.00000000000E+00  0.00000000000E+00  0.50000499739E+01  0.50000500000E+01  0.51100000000E-03 0. -1.
         11   -1    0    0    0    0 -0.00000000000E+00 -0.00000000000E+00 -0.50000499739E+01  0.50000500000E+01  0.51100000000E-03 0.  1.
     100001    1    1    2    0    0 -0.12647572291E-01  0.16389000689E-01 -0.84523411868E-02  0.50000500000E+01  0.50000000000E+01 0.  0.
     100001    1    1    2    0    0  0.12647572291E-01 -0.16389000689E-01  0.84523411868E-02  0.50000500000E+01  0.50000000000E+01 0.  0.
</event>
<event>
 4    1  0.4897575E-001  0.5000050E+01  0.7818608E-02  0.2136455E+00
        -11   -1    0    0    0    0  0.00000000000E+00  0.00000000000E+00  0.50000499739E+01  0.50000500000E+01  0.51100000000E-03 0.  1.
         11   -1    0    0    0    0 -0.00000000000E+00 -0.00000000000E+00 -0.50000499739E+01  0.50000500000E+01  0.51100000000E-03 0. -1.
     100001    1    1    2    0    0  0.66166114691E-02  0.12378602838E-01 -0.17406698263E-01  0.50000500000E+01  0.50000000000E+01 0.  0.
     100001    1    1    2    0    0 -0.66166114691E-02 -0.12378602838E-01  0.17406698263E-01  0.50000500000E+01  0.50000000000E+01 0.  0.
</event>
<event>
 4    1  0.4897575E-001  0.5000050E+01  0.7818608E-02  0.2136455E+00
        -11   -1    0    0    0    0  0.00000000000E+00  0.00000000000E+00  0.50000499739E+01  0.50000500000E+01  0.51100000000E-03 0.  1.
         11   -1    0    0    0    0 -0.00000000000E+00 -0.00000000000E+00 -0.50000499739E+01  0.50000500000E+01  0.51100000000E-03 0. -1.
     100001    1    1    2    0    0 -0.15342997021E-01  0.29551537476E-02 -0.15995687192E-01  0.50000500000E+01  0.50000000000E+01 0. -1.
     100001    1    1    2    0    0  0.15342997021E-01 -0.29551537476E-02  0.15995687192E-01  0.50000500000E+01  0.50000000000E+01 0.  1.
</event>
<event>
 4    1  0.4897575E-001  0.5000050E+01  0.7818608E-02  0.2136455E+00
        -11   -1    0    0    0    0  0.00000000000E+00  0.00000000000E+00  0.50000499739E+01  0.50000500000E+01  0.51100000000E-03 0.  1.
         11   -1    0    0    0    0 -0.00000000000E+00 -0.00000000000E+00 -0.50000499739E+01  0.50000500000E+01  0.51100000000E-03 0. -1.
     100001    1    1    2    0    0  0.12327651846E-01 -0.16312823566E-01  0.90511483955E-02  0.50000500000E+01  0.50000000000E+01 0.  0.
     100001    1    1    2    0    0 -0.12327651846E-01  0.16312823566E-01 -0.90511483955E-02  0.50000500000E+01  0.50000000000E+01 0.  0.
</event>
<event>
 4    1  0.4897575E-001  0.5000050E+01  0.7818608E-02  0.2136455E+00
        -11   -1    0    0    0    0  0.00000000000E+00  0.00000000000E+00  0.50000499739E+01  0.50000500000E+01  0.51100000000E-03 0.  1.
         11   -1    0    0    0    0 -0.00000000000E+00 -0.00000000000E+00 -0.50000499739E+01  0.50000500000E+01  0.51100000000E-03 0. -1.
     100001    1    1    2    0    0 -0.12952356222E-01  0.17903751898E-01 -0.34197421330E-02  0.50000500000E+01  0.50000000000E+01 0.  1.
     100001    1    1    2    0    0  0.12952356222E-01 -0.17903751898E-01  0.34197421330E-02  0.50000500000E+01  0.50000000000E+01 0. -1.
</event>
<event>
 4    1  0.4897575E-001  0.5000050E+01  0.7818608E-02  0.2136455E+00
        -11   -1    0    0    0    0  0.00000000000E+00  0.00000000000E+00  0.50000499739E+01  0.50000500000E+01  0.51100000000E-03 0. -1.
         11   -1    0    0    0    0 -0.00000000000E+00 -0.00000000000E+00 -0.50000499739E+01  0.50000500000E+01  0.51100000000E-03 0.  1.
     100001    1    1    2    0    0 -0.11643896943E-01 -0.18400166017E-01  0.50848849081E-02  0.50000500000E+01  0.50000000000E+01 0.  0.
     100001    1    1    2    0    0  0.11643896943E-01  0.18400166017E-01 -0.50848849081E-02  0.50000500000E+01  0.50000000000E+01 0. -1.
</event>
<event>
 4    1  0.4897575E-001  0.5000050E+01  0.7818608E-02  0.2136455E+00
        -11   -1    0    0    0    0  0.00000000000E+00  0.00000000000E+00  0.50000499739E+01  0.50000500000E+01  0.51100000000E-03 0. -1.
         11   -1    0    0    0    0 -0.00000000000E+00 -0.00000000000E+00 -0.50000499739E+01  0.50000500000E+01  0.51100000000E-03 0.  1.
     100001    1    1    2    0    0  0.21663181792E-01 -0.38598639013E-02  0.39762426123E-02  0.50000500000E+01  0.50000000000E+01 0. -1.
     100001    1    1    2    0    0 -0.21663181792E-01  0.38598639013E-02 -0.39762426123E-02  0.50000500000E+01  0.50000000000E+01 0.  1.
</event>
<event>
 4    1  0.4897575E-001  0.5000050E+01  0.7818608E-02  0.2136455E+00
        -11   -1    0    0    0    0  0.00000000000E+00  0.00000000000E+00  0.50000499739E+01  0.50000500000E+01  0.51100000000E-03 0.  1.
         11   -1    0    0    0    0 -0.00000000000E+00 -0.00000000000E+00 -0.50000499739E+01  0.50000500000E+01  0.51100000000E-03 0. -1.
     100001    1    1    2    0    0  0.20151841229E-01 -0.56969715814E-02  0.78390248048E-02  0.50000500000E+01  0.50000000000E+01 0. -1.
     100001    1    1    2    0    0 -0.20151841229E-01  0.56969715814E-02 -0.78390248048E-02  0.50000500000E+01  0.50000000000E+01 0. -1.
</event>
<event>
 4    1  0.4897575E-001  0.5000050E+01  0.7818608E-02  0.2136455E+00
        -11   -1    0    0    0    0  0.00000000000E+00  0.00000000000E+00  0.50000499739E+01  0.50000500000E+01  0.51100000000E-03 0.  1.
         11   -1    0    0    0    0 -0.00000000000E+00 -0.00000000000E+00 -0.50000499739E+01  0.50000500000E+01  0.51100000000E-03 0. -1.
     100001    1    1    2    0    0 -0.75003682262E-02  0.55947906868E-02 -0.20308749189E-01  0.50000500000E+01  0.50000000000E+01 0.  0.
     100001    1    1    2    0    0  0.75003682262E-02 -0.55947906868E-02  0.20308749189E-01  0.50000500000E+01  0.50000000000E+01 0.  0.
</event>
<event>
 4    1  0.4897575E-001  0.5000050E+01  0.7818608E-02  0.2136455E+00
        -11   -1    0    0    0    0  0.00000000000E+00  0.00000000000E+00  0.50000499739E+01  0.50000500000E+01  0.51100000000E-03 0. -1.
         11   -1    0    0    0    0 -0.00000000000E+00 -0.00000000000E+00 -0.50000499739E+01  0.50000500000E+01  0.51100000000E-03 0.  1.
     100001    1    1    2    0    0 -0.14854598509E-01  0.15019620238E-01  0.73317399734E-02  0.50000500000E+01  0.50000000000E+01 0. -1.
     100001    1    1    2    0    0  0.14854598509E-01 -0.15019620238E-01 -0.73317399734E-02  0.50000500000E+01  0.50000000000E+01 0.  1.
</event>
<event>
 4    1  0.4897575E-001  0.5000050E+01  0.7818608E-02  0.2136455E+00
        -11   -1    0    0    0    0  0.00000000000E+00  0.00000000000E+00  0.50000499739E+01  0.50000500000E+01  0.51100000000E-03 0. -1.
         11   -1    0    0    0    0 -0.00000000000E+00 -0.00000000000E+00 -0.50000499739E+01  0.50000500000E+01  0.51100000000E-03 0.  1.
     100001    1    1    2    0    0  0.76485572219E-02 -0.15172731774E-01 -0.14535827563E-01  0.50000500000E+01  0.50000000000E+01 0.  0.
     100001    1    1    2    0    0 -0.76485572219E-02  0.15172731774E-01  0.14535827563E-01  0.50000500000E+01  0.50000000000E+01 0.  1.
</event>
<event>
 4    1  0.4897575E-001  0.5000050E+01  0.7818608E-02  0.2136455E+00
        -11   -1    0    0    0    0  0.00000000000E+00  0.00000000000E+00  0.50000499739E+01  0.50000500000E+01  0.51100000000E-03 0.  1.
         11   -1    0    0    0    0 -0.00000000000E+00 -0.00000000000E+00 -0.50000499739E+01  0.50000500000E+01  0.51100000000E-03 0. -1.
     100001    1    1    2    0    0  0.20142622267E-01 -0.77183881882E-02  0.58909890493E-02  0.50000500000E+01  0.50000000000E+01 0. -1.
     100001    1    1    2    0    0 -0.20142622267E-01  0.77183881882E-02 -0.58909890493E-02  0.50000500000E+01  0.50000000000E+01 0.  1.
</event>
<event>
 4    1  0.4897575E-001  0.5000050E+01  0.7818608E-02  0.2136455E+00
        -11   -1    0    0    0    0  0.00000000000E+00  0.00000000000E+00  0.50000499739E+01  0.50000500000E+01  0.51100000000E-03 0.  1.
         11   -1    0    0    0    0 -0.00000000000E+00 -0.00000000000E+00 -0.50000499739E+01  0.50000500000E+01  0.51100000000E-03 0. -1.
     100001    1    1    2    0    0 -0.15808046721E-01 -0.86399364321E-02 -0.13246118576E-01  0.50000500000E+01  0.50000000000E+01 0.  0.
     100001    1    1    2    0    0  0.15808046721E-01  0.86399364321E-02  0.13246118576E-01  0.50000500000E+01  0.50000000000E+01 0.  0.
</event>
<event>
 4    1  0.4897575E-001  0.5000050E+01  0.7818608E-02  0.2136455E+00
        -11   -1    0    0    0    0  0.00000000000E+00  0.00000000000E+00  0.50000499739E+01  0.50000500000E+01  0.51100000000E-03 0. -1.
         11   -1    0    0    0    0 -0.00000000000E+00 -0.00000000000E+00 -0.50000499739E+01  0.50000500000E+01  0.51100000000E-03 0.  1.
     100001    1    1    2    0    0 -0.74575765543E-03 -0.10817447382E-01  0.19555796523E-01  0.50000500000E+01  0.50000000000E+01 0.  0.
     100001    1    1    2    0    0  0.74575765543E-03  0.10817447382E-01 -0.19555796523E-01  0.50000500000E+01  0.50000000000E+01 0.  1.
</event>
<event>
 4    1  0.4897575E-001  0.5000050E+01  0.7818608E-02  0.2136455E+00
        -11   -1    0    0    0    0  0.00000000000E+00  0.00000000000E+00  0.50000499739E+01  0.50000500000E+01  0.51100000000E-03 0.  1.
         11   -1    0    0    0    0 -0.00000000000E+00 -0.00000000000E+00 -0.50000499739E+01  0.50000500000E+01  0.51100000000E-03 0. -1.
     100001    1    1    2    0    0 -0.69360970402E-02 -0.19338318265E-01  0.88273724585E-02  0.50000500000E+01  0.50000000000E+01 0.  1.
     100001    1    1    2    0    0  0.69360970402E-02  0.19338318265E-01 -0.88273724585E-02  0.50000500000E+01  0.50000000000E+01 0. -1.
</event>
<event>
 4    1  0.4897575E-001  0.5000050E+01  0.7818608E-02  0.2136455E+00
        -11   -1    0    0    0    0  0.00000000000E+00  0.00000000000E+00  0.50000499739E+01  0.50000500000E+01  0.51100000000E-03 0. -1.
         11   -1    0    0    0    0 -0.00000000000E+00 -0.00000000000E+00 -0.50000499739E+01  0.50000500000E+01  0.51100000000E-03 0.  1.
     100001    1    1    2    0    0  0.20983190377E-01 -0.34839882686E-02  0.68971042714E-02  0.50000500000E+01  0.50000000000E+01 0. -1.
     100001    1    1    2    0    0 -0.20983190377E-01  0.34839882686E-02 -0.68971042714E-02  0.50000500000E+01  0.50000000000E+01 0.  1.
</event>
<event>
 4    1  0.4897575E-001  0.5000050E+01  0.7818608E-02  0.2136455E+00
        -11   -1    0    0    0    0  0.00000000000E+00  0.00000000000E+00  0.50000499739E+01  0.50000500000E+01  0.51100000000E-03 0. -1.
         11   -1    0    0    0    0 -0.00000000000E+00 -0.00000000000E+00 -0.50000499739E+01  0.50000500000E+01  0.51100000000E-03 0.  1.
     100001    1    1    2    0    0  0.18020887769E-01  0.12396085744E-01 -0.46461986896E-02  0.50000500000E+01  0.50000000000E+01 0. -1.
     100001    1    1    2    0    0 -0.18020887769E-01 -0.12396085744E-01  0.46461986896E-02  0.50000500000E+01  0.50000000000E+01 0.  0.
</event>
<event>
 4    1  0.4897575E-001  0.5000050E+01  0.7818608E-02  0.2136455E+00
        -11   -1    0    0    0    0  0.00000000000E+00  0.00000000000E+00  0.50000499739E+01  0.50000500000E+01  0.51100000000E-03 0.  1.
         11   -1    0    0    0    0 -0.00000000000E+00 -0.00000000000E+00 -0.50000499739E+01  0.50000500000E+01  0.51100000000E-03 0. -1.
     100001    1    1    2    0    0  0.79120304572E-02  0.15768925371E-01  0.13738386612E-01  0.50000500000E+01  0.50000000000E+01 0.  0.
     100001    1    1    2    0    0 -0.79120304572E-02 -0.15768925371E-01 -0.13738386612E-01  0.50000500000E+01  0.50000000000E+01 0.  1.
</event>
<event>
 4    1  0.4897575E-001  0.5000050E+01  0.7818608E-02  0.2136455E+00
        -11   -1    0    0    0    0  0.00000000000E+00  0.00000000000E+00  0.50000499739E+01  0.50000500000E+01  0.51100000000E-03 0.  1.
         11   -1    0    0    0    0 -0.00000000000E+00 -0.00000000000E+00 -0.50000499739E+01  0.50000500000E+01  0.51100000000E-03 0. -1.
     100001    1    1    2    0    0  0.51980782094E-02 -0.11930234630E-01 -0.18183838555E-01  0.50000500000E+01  0.50000000000E+01 0.  0.
     100001    1    1    2    0    0 -0.51980782094E-02  0.11930234630E-01  0.18183838555E-01  0.50000500000E+01  0.50000000000E+01 0.  1.
</event>
<event>
 4    1  0.4897575E-001  0.5000050E+01  0.7818608E-02  0.2136455E+00
        -11   -1    0    0    0    0  0.00000000000E+00  0.00000000000E+00  0.50000499739E+01  0.50000500000E+01  0.51100000000E-03 0.  1.
         11   -1    0    0    0    0 -0.00000000000E+00 -0.00000000000E+00 -0.50000499739E+01  0.50000500000E+01  0.51100000000E-03 0. -1.
     100001    1    1    2    0    0 -0.89738665214E-02  0.17296676134E-01 -0.10968008679E-01  0.50000500000E+01  0.50000000000E+01 0.  0.
     100001    1    1    2    0    0  0.89738665214E-02 -0.17296676134E-01  0.10968008679E-01  0.50000500000E+01  0.50000000000E+01 0. -1.
</event>
<event>
 4    1  0.4897575E-001  0.5000050E+01  0.7818608E-02  0.2136455E+00
        -11   -1    0    0    0    0  0.00000000000E+00  0.00000000000E+00  0.50000499739E+01  0.50000500000E+01  0.51100000000E-03 0. -1.
         11   -1    0    0    0    0 -0.00000000000E+00 -0.00000000000E+00 -0.50000499739E+01  0.50000500000E+01  0.51100000000E-03 0.  1.
     100001    1    1    2    0    0 -0.14519107266E-01 -0.10421037857E-01  0.13438749725E-01  0.50000500000E+01  0.50000000000E+01 0.  0.
     100001    1    1    2    0    0  0.14519107266E-01  0.10421037857E-01 -0.13438749725E-01  0.50000500000E+01  0.50000000000E+01 0.  0.
</event>
<event>
 4    1  0.4897575E-001  0.5000050E+01  0.7818608E-02  0.2136455E+00
        -11   -1    0    0    0    0  0.00000000000E+00  0.00000000000E+00  0.50000499739E+01  0.50000500000E+01  0.51100000000E-03 0.  1.
         11   -1    0    0    0    0 -0.00000000000E+00 -0.00000000000E+00 -0.50000499739E+01  0.50000500000E+01  0.51100000000E-03 0. -1.
     100001    1    1    2    0    0 -0.14466715845E-01  0.13754151361E-01 -0.10076703479E-01  0.50000500000E+01  0.50000000000E+01 0.  1.
     100001    1    1    2    0    0  0.14466715845E-01 -0.13754151361E-01  0.10076703479E-01  0.50000500000E+01  0.50000000000E+01 0.  0.
</event>
<event>
 4    1  0.4897575E-001  0.5000050E+01  0.7818608E-02  0.2136455E+00
        -11   -1    0    0    0    0  0.00000000000E+00  0.00000000000E+00  0.50000499739E+01  0.50000500000E+01  0.51100000000E-03 0.  1.
         11   -1    0    0    0    0 -0.00000000000E+00 -0.00000000000E+00 -0.50000499739E+01  0.50000500000E+01  0.51100000000E-03 0. -1.
     100001    1    1    2    0    0  0.17052142026E-01 -0.14183236728E-01 -0.28394978827E-02  0.50000500000E+01  0.50000000000E+01 0.  1.
     100001    1    1    2    0    0 -0.17052142026E-01  0.14183236728E-01  0.28394978827E-02  0.50000500000E+01  0.50000000000E+01 0. -1.
</event>
<event>
 4    1  0.4897575E-001  0.5000050E+01  0.7818608E-02  0.2136455E+00
        -11   -1    0    0    0    0  0.00000000000E+00  0.00000000000E+00  0.50000499739E+01  0.50000500000E+01  0.51100000000E-03 0. -1.
         11   -1    0    0    0    0 -0.00000000000E+00 -0.00000000000E+00 -0.50000499739E+01  0.50000500000E+01  0.51100000000E-03 0.  1.
     100001    1    1    2    0    0 -0.76443525818E-02  0.18504236618E-01 -0.99578913826E-02  0.50000500000E+01  0.50000000000E+01 0. -1.
     100001    1    1    2    0    0  0.76443525818E-02 -0.18504236618E-01  0.99578913826E-02  0.50000500000E+01  0.50000000000E+01 0.  0.
</event>
<event>
 4    1  0.4897575E-001  0.5000050E+01  0.7818608E-02  0.2136455E+00
        -11   -1    0    0    0    0  0.00000000000E+00  0.00000000000E+00  0.50000499739E+01  0.50000500000E+01  0.51100000000E-03 0.  1.
         11   -1    0    0    0    0 -0.00000000000E+00 -0.00000000000E+00 -0.50000499739E+01  0.50000500000E+01  0.51100000000E-03 0. -1.
     100001    1    1    2    0    0  0.17305827200E-01 -0.11446993630E-01  0.83352973405E-02  0.50000500000E+01  0.50000000000E+01 0.  1.
     100001    1    1    2    0    0 -0.17305827200E-01  0.11446993630E-01 -0.83352973405E-02  0.50000500000E+01  0.50000000000E+01 0. -1.
</event>
<event>
 4    1  0.4897575E-001  0.5000050E+01  0.7818608E-02  0.2136455E+00
        -11   -1    0    0    0    0  0.00000000000E+00  0.00000000000E+00  0.50000499739E+01  0.50000500000E+01  0.51100000000E-03 0. -1.
         11   -1    0    0    0    0 -0.00000000000E+00 -0.00000000000E+00 -0.50000499739E+01  0.50000500000E+01  0.51100000000E-03 0.  1.
     100001    1    1    2    0    0  0.88892950402E-02 -0.18273529205E-01 -0.93306518563E-02  0.50000500000E+01  0.50000000000E+01 0.  1.
     100001    1    1    2    0    0 -0.88892950402E-02  0.18273529205E-01  0.93306518563E-02  0.50000500000E+01  0.50000000000E+01 0. -1.
</event>
<event>
 4    1  0.4897575E-001  0.5000050E+01  0.7818608E-02  0.2136455E+00
        -11   -1    0    0    0    0  0.00000000000E+00  0.00000000000E+00  0.50000499739E+01  0.50000500000E+01  0.51100000000E-03 0. -1.
         11   -1    0    0    0    0 -0.00000000000E+00 -0.00000000000E+00 -0.50000499739E+01  0.50000500000E+01  0.51100000000E-03 0.  1.
     100001    1    1    2    0    0  0.13584243411E-01 -0.86477862768E-02 -0.15514078234E-01  0.50000500000E+01  0.50000000000E+01 0. -1.
     100001    1    1    2    0    0 -0.13584243411E-01  0.86477862768E-02  0.15514078234E-01  0.50000500000E+01  0.50000000000E+01 0. -1.
</event>
<event>
 4    1  0.4897575E-001  0.5000050E+01  0.7818608E-02  0.2136455E+00
        -11   -1    0    0    0    0  0.00000000000E+00  0.00000000000E+00  0.50000499739E+01  0.50000500000E+01  0.51100000000E-03 0.  1.
         11   -1    0    0    0    0 -0.00000000000E+00 -0.00000000000E+00 -0.50000499739E+01  0.50000500000E+01  0.51100000000E-03 0. -1.
     100001    1    1    2    0    0 -0.44589760929E-02 -0.19422741481E-01 -0.10142837156E-01  0.50000500000E+01  0.50000000000E+01 0. -1.
     100001    1    1    2    0    0  0.44589760929E-02  0.19422741481E-01  0.10142837156E-01  0.50000500000E+01  0.50000000000E+01 0.  1.
</event>
<event>
 4    1  0.4897575E-001  0.5000050E+01  0.7818608E-02  0.2136455E+00
        -11   -1    0    0    0    0  0.00000000000E+00  0.00000000000E+00  0.50000499739E+01  0.50000500000E+01  0.51100000000E-03 0. -1.
         11   -1    0    0    0    0 -0.00000000000E+00 -0.00000000000E+00 -0.50000499739E+01  0.50000500000E+01  0.51100000000E-03 0.  1.
     100001    1    1    2    0    0 -0.10203918970E-01 -0.19575235363E-01  0.35626813132E-02  0.50000500000E+01  0.50000000000E+01 0.  1.
     100001    1    1    2    0    0  0.10203918970E-01  0.19575235363E-01 -0.35626813132E-02  0.50000500000E+01  0.50000000000E+01 0.  0.
</event>
<event>
 4    1  0.4897575E-001  0.5000050E+01  0.7818608E-02  0.2136455E+00
        -11   -1    0    0    0    0  0.00000000000E+00  0.00000000000E+00  0.50000499739E+01  0.50000500000E+01  0.51100000000E-03 0.  1.
         11   -1    0    0    0    0 -0.00000000000E+00 -0.00000000000E+00 -0.50000499739E+01  0.50000500000E+01  0.51100000000E-03 0. -1.
     100001    1    1    2    0    0  0.16331077498E-01 -0.19712757315E-02  0.15146368533E-01  0.50000500000E+01  0.50000000000E+01 0.  1.
     100001    1    1    2    0    0 -0.16331077498E-01  0.19712757315E-02 -0.15146368533E-01  0.50000500000E+01  0.50000000000E+01 0.  0.
</event>
<event>
 4    1  0.4897575E-001  0.5000050E+01  0.7818608E-02  0.2136455E+00
        -11   -1    0    0    0    0  0.00000000000E+00  0.00000000000E+00  0.50000499739E+01  0.50000500000E+01  0.51100000000E-03 0.  1.
         11   -1    0    0    0    0 -0.00000000000E+00 -0.00000000000E+00 -0.50000499739E+01  0.50000500000E+01  0.51100000000E-03 0. -1.
     100001    1    1    2    0    0 -0.94616987428E-02  0.15426679408E-01 -0.13133785416E-01  0.50000500000E+01  0.50000000000E+01 0. -1.
     100001    1    1    2    0    0  0.94616987428E-02 -0.15426679408E-01  0.13133785416E-01  0.50000500000E+01  0.50000000000E+01 0.  1.
</event>
<event>
 4    1  0.4897575E-001  0.5000050E+01  0.7818608E-02  0.2136455E+00
        -11   -1    0    0    0    0  0.00000000000E+00  0.00000000000E+00  0.50000499739E+01  0.50000500000E+01  0.51100000000E-03 0.  1.
         11   -1    0    0    0    0 -0.00000000000E+00 -0.00000000000E+00 -0.50000499739E+01  0.50000500000E+01  0.51100000000E-03 0. -1.
     100001    1    1    2    0    0 -0.12989413534E-01 -0.16938273242E-01  0.66612713216E-02  0.50000500000E+01  0.50000000000E+01 0.  1.
     100001    1    1    2    0    0  0.12989413534E-01  0.16938273242E-01 -0.66612713216E-02  0.50000500000E+01  0.50000000000E+01 0. -1.
</event>
<event>
 4    1  0.4897575E-001  0.5000050E+01  0.7818608E-02  0.2136455E+00
        -11   -1    0    0    0    0  0.00000000000E+00  0.00000000000E+00  0.50000499739E+01  0.50000500000E+01  0.51100000000E-03 0. -1.
         11   -1    0    0    0    0 -0.00000000000E+00 -0.00000000000E+00 -0.50000499739E+01  0.50000500000E+01  0.51100000000E-03 0.  1.
     100001    1    1    2    0    0 -0.11630171957E-01 -0.52843059995E-02 -0.18352594104E-01  0.50000500000E+01  0.50000000000E+01 0.  1.
     100001    1    1    2    0    0  0.11630171957E-01  0.52843059995E-02  0.18352594104E-01  0.50000500000E+01  0.50000000000E+01 0.  0.
</event>
<event>
 4    1  0.4897575E-001  0.5000050E+01  0.7818608E-02  0.2136455E+00
        -11   -1    0    0    0    0  0.00000000000E+00  0.00000000000E+00  0.50000499739E+01  0.50000500000E+01  0.51100000000E-03 0.  1.
         11   -1    0    0    0    0 -0.00000000000E+00 -0.00000000000E+00 -0.50000499739E+01  0.50000500000E+01  0.51100000000E-03 0. -1.
     100001    1    1    2    0    0 -0.96248794102E-02 -0.10266742076E-01  0.17376944596E-01  0.50000500000E+01  0.50000000000E+01 0.  1.
     100001    1    1    2    0    0  0.96248794102E-02  0.10266742076E-01 -0.17376944596E-01  0.50000500000E+01  0.50000000000E+01 0.  0.
</event>
<event>
 4    1  0.4897575E-001  0.5000050E+01  0.7818608E-02  0.2136455E+00
        -11   -1    0    0    0    0  0.00000000000E+00  0.00000000000E+00  0.50000499739E+01  0.50000500000E+01  0.51100000000E-03 0. -1.
         11   -1    0    0    0    0 -0.00000000000E+00 -0.00000000000E+00 -0.50000499739E+01  0.50000500000E+01  0.51100000000E-03 0.  1.
     100001    1    1    2    0    0 -0.19053827846E-01  0.50124268123E-02  0.10574957299E-01  0.50000500000E+01  0.50000000000E+01 0. -1.
     100001    1    1    2    0    0  0.19053827846E-01 -0.50124268123E-02 -0.10574957299E-01  0.50000500000E+01  0.50000000000E+01 0.  1.
</event>
<event>
 4    1  0.4897575E-001  0.5000050E+01  0.7818608E-02  0.2136455E+00
        -11   -1    0    0    0    0  0.00000000000E+00  0.00000000000E+00  0.50000499739E+01  0.50000500000E+01  0.51100000000E-03 0.  1.
         11   -1    0    0    0    0 -0.00000000000E+00 -0.00000000000E+00 -0.50000499739E+01  0.50000500000E+01  0.51100000000E-03 0. -1.
     100001    1    1    2    0    0  0.65914173265E-02  0.20761612540E-01  0.50508575888E-02  0.50000500000E+01  0.50000000000E+01 0.  0.
     100001    1    1    2    0    0 -0.65914173265E-02 -0.20761612540E-01 -0.50508575888E-02  0.50000500000E+01  0.50000000000E+01 0.  1.
</event>
<event>
 4    1  0.4897575E-001  0.5000050E+01  0.7818608E-02  0.2136455E+00
        -11   -1    0    0    0    0  0.00000000000E+00  0.00000000000E+00  0.50000499739E+01  0.50000500000E+01  0.51100000000E-03 0. -1.
         11   -1    0    0    0    0 -0.00000000000E+00 -0.00000000000E+00 -0.50000499739E+01  0.50000500000E+01  0.51100000000E-03 0.  1.
     100001    1    1    2    0    0  0.17043260678E-01  0.98781808395E-02  0.10580704549E-01  0.50000500000E+01  0.50000000000E+01 0.  0.
     100001    1    1    2    0    0 -0.17043260678E-01 -0.98781808395E-02 -0.10580704549E-01  0.50000500000E+01  0.50000000000E+01 0. -1.
</event>
<event>
 4    1  0.4897575E-001  0.5000050E+01  0.7818608E-02  0.2136455E+00
        -11   -1    0    0    0    0  0.00000000000E+00  0.00000000000E+00  0.50000499739E+01  0.50000500000E+01  0.51100000000E-03 0.  1.
         11   -1    0    0    0    0 -0.00000000000E+00 -0.00000000000E+00 -0.50000499739E+01  0.50000500000E+01  0.51100000000E-03 0. -1.
     100001    1    1    2    0    0  0.20212309135E-01  0.31332393817E-02 -0.90359211166E-02  0.50000500000E+01  0.50000000000E+01 0.  1.
     100001    1    1    2    0    0 -0.20212309135E-01 -0.31332393817E-02  0.90359211166E-02  0.50000500000E+01  0.50000000000E+01 0. -1.
</event>
<event>
 4    1  0.4897575E-001  0.5000050E+01  0.7818608E-02  0.2136455E+00
        -11   -1    0    0    0    0  0.00000000000E+00  0.00000000000E+00  0.50000499739E+01  0.50000500000E+01  0.51100000000E-03 0.  1.
         11   -1    0    0    0    0 -0.00000000000E+00 -0.00000000000E+00 -0.50000499739E+01  0.50000500000E+01  0.51100000000E-03 0. -1.
     100001    1    1    2    0    0  0.18828720104E-01 -0.11998310069E-01 -0.12338373946E-02  0.50000500000E+01  0.50000000000E+01 0.  1.
     100001    1    1    2    0    0 -0.18828720104E-01  0.11998310069E-01  0.12338373946E-02  0.50000500000E+01  0.50000000000E+01 0.  0.
</event>
<event>
 4    1  0.4897575E-001  0.5000050E+01  0.7818608E-02  0.2136455E+00
        -11   -1    0    0    0    0  0.00000000000E+00  0.00000000000E+00  0.50000499739E+01  0.50000500000E+01  0.51100000000E-03 0. -1.
         11   -1    0    0    0    0 -0.00000000000E+00 -0.00000000000E+00 -0.50000499739E+01  0.50000500000E+01  0.51100000000E-03 0.  1.
     100001    1    1    2    0    0  0.36135824859E-02 -0.76216656677E-02  0.20708808128E-01  0.50000500000E+01  0.50000000000E+01 0. -1.
     100001    1    1    2    0    0 -0.36135824859E-02  0.76216656677E-02 -0.20708808128E-01  0.50000500000E+01  0.50000000000E+01 0.  1.
</event>
<event>
 4    1  0.4897575E-001  0.5000050E+01  0.7818608E-02  0.2136455E+00
        -11   -1    0    0    0    0  0.00000000000E+00  0.00000000000E+00  0.50000499739E+01  0.50000500000E+01  0.51100000000E-03 0.  1.
         11   -1    0    0    0    0 -0.00000000000E+00 -0.00000000000E+00 -0.50000499739E+01  0.50000500000E+01  0.51100000000E-03 0. -1.
     100001    1    1    2    0    0 -0.42591178874E-02 -0.12108149890E-01 -0.18309973268E-01  0.50000500000E+01  0.50000000000E+01 0.  0.
     100001    1    1    2    0    0  0.42591178874E-02  0.12108149890E-01  0.18309973268E-01  0.50000500000E+01  0.50000000000E+01 0.  1.
</event>
<event>
 4    1  0.4897575E-001  0.5000050E+01  0.7818608E-02  0.2136455E+00
        -11   -1    0    0    0    0  0.00000000000E+00  0.00000000000E+00  0.50000499739E+01  0.50000500000E+01  0.51100000000E-03 0.  1.
         11   -1    0    0    0    0 -0.00000000000E+00 -0.00000000000E+00 -0.50000499739E+01  0.50000500000E+01  0.51100000000E-03 0. -1.
     100001    1    1    2    0    0  0.81860415364E-02  0.19553005472E-01 -0.71183706676E-02  0.50000500000E+01  0.50000000000E+01 0. -1.
     100001    1    1    2    0    0 -0.81860415364E-02 -0.19553005472E-01  0.71183706676E-02  0.50000500000E+01  0.50000000000E+01 0.  1.
</event>
<event>
 4    1  0.4897575E-001  0.5000050E+01  0.7818608E-02  0.2136455E+00
        -11   -1    0    0    0    0  0.00000000000E+00  0.00000000000E+00  0.50000499739E+01  0.50000500000E+01  0.51100000000E-03 0. -1.
         11   -1    0    0    0    0 -0.00000000000E+00 -0.00000000000E+00 -0.50000499739E+01  0.50000500000E+01  0.51100000000E-03 0.  1.
     100001    1    1    2    0    0 -0.17984348709E-01  0.84402269859E-02  0.10262956199E-01  0.50000500000E+01  0.50000000000E+01 0. -1.
     100001    1    1    2    0    0  0.17984348709E-01 -0.84402269859E-02 -0.10262956199E-01  0.50000500000E+01  0.50000000000E+01 0.  1.
</event>
<event>
 4    1  0.4897575E-001  0.5000050E+01  0.7818608E-02  0.2136455E+00
        -11   -1    0    0    0    0  0.00000000000E+00  0.00000000000E+00  0.50000499739E+01  0.50000500000E+01  0.51100000000E-03 0. -1.
         11   -1    0    0    0    0 -0.00000000000E+00 -0.00000000000E+00 -0.50000499739E+01  0.50000500000E+01  0.51100000000E-03 0.  1.
     100001    1    1    2    0    0  0.20520949251E-01 -0.84562986581E-02  0.27173801442E-02  0.50000500000E+01  0.50000000000E+01 0. -1.
     100001    1    1    2    0    0 -0.20520949251E-01  0.84562986581E-02 -0.27173801442E-02  0.50000500000E+01  0.50000000000E+01 0.  1.
</event>
<event>
 4    1  0.4897575E-001  0.5000050E+01  0.7818608E-02  0.2136455E+00
        -11   -1    0    0    0    0  0.00000000000E+00  0.00000000000E+00  0.50000499739E+01  0.50000500000E+01  0.51100000000E-03 0. -1.
         11   -1    0    0    0    0 -0.00000000000E+00 -0.00000000000E+00 -0.50000499739E+01  0.50000500000E+01  0.51100000000E-03 0.  1.
     100001    1    1    2    0    0  0.14335623857E-01 -0.56528391914E-02  0.16203018167E-01  0.50000500000E+01  0.50000000000E+01 0.  1.
     100001    1    1    2    0    0 -0.14335623857E-01  0.56528391914E-02 -0.16203018167E-01  0.50000500000E+01  0.50000000000E+01 0.  0.
</event>
<event>
 4    1  0.4897575E-001  0.5000050E+01  0.7818608E-02  0.2136455E+00
        -11   -1    0    0    0    0  0.00000000000E+00  0.00000000000E+00  0.50000499739E+01  0.50000500000E+01  0.51100000000E-03 0. -1.
         11   -1    0    0    0    0 -0.00000000000E+00 -0.00000000000E+00 -0.50000499739E+01  0.50000500000E+01  0.51100000000E-03 0.  1.
     100001    1    1    2    0    0  0.13197757787E-01  0.36301745371E-02  0.17681728485E-01  0.50000500000E+01  0.50000000000E+01 0.  0.
     100001    1    1    2    0    0 -0.13197757787E-01 -0.36301745371E-02 -0.17681728485E-01  0.50000500000E+01  0.50000000000E+01 0.  0.
</event>
<event>
 4    1  0.4897575E-001  0.5000050E+01  0.7818608E-02  0.2136455E+00
        -11   -1    0    0    0    0  0.00000000000E+00  0.00000000000E+00  0.50000499739E+01  0.50000500000E+01  0.51100000000E-03 0. -1.
         11   -1    0    0    0    0 -0.00000000000E+00 -0.00000000000E+00 -0.50000499739E+01  0.50000500000E+01  0.51100000000E-03 0.  1.
     100001    1    1    2    0    0 -0.16845818950E-01  0.70699311921E-02 -0.12893291157E-01  0.50000500000E+01  0.50000000000E+01 0. -1.
     100001    1    1    2    0    0  0.16845818950E-01 -0.70699311921E-02  0.12893291157E-01  0.50000500000E+01  0.50000000000E+01 0.  0.
</event>
<event>
 4    1  0.4897575E-001  0.5000050E+01  0.7818608E-02  0.2136455E+00
        -11   -1    0    0    0    0  0.00000000000E+00  0.00000000000E+00  0.50000499739E+01  0.50000500000E+01  0.51100000000E-03 0.  1.
         11   -1    0    0    0    0 -0.00000000000E+00 -0.00000000000E+00 -0.50000499739E+01  0.50000500000E+01  0.51100000000E-03 0. -1.
     100001    1    1    2    0    0 -0.80659275576E-03 -0.53810954504E-02 -0.21688608067E-01  0.50000500000E+01  0.50000000000E+01 0. -1.
     100001    1    1    2    0    0  0.80659275576E-03  0.53810954504E-02  0.21688608067E-01  0.50000500000E+01  0.50000000000E+01 0.  0.
</event>
<event>
 4    1  0.4897575E-001  0.5000050E+01  0.7818608E-02  0.2136455E+00
        -11   -1    0    0    0    0  0.00000000000E+00  0.00000000000E+00  0.50000499739E+01  0.50000500000E+01  0.51100000000E-03 0.  1.
         11   -1    0    0    0    0 -0.00000000000E+00 -0.00000000000E+00 -0.50000499739E+01  0.50000500000E+01  0.51100000000E-03 0. -1.
     100001    1    1    2    0    0 -0.95949461455E-02  0.38687618373E-02  0.19823526183E-01  0.50000500000E+01  0.50000000000E+01 0.  1.
     100001    1    1    2    0    0  0.95949461455E-02 -0.38687618373E-02 -0.19823526183E-01  0.50000500000E+01  0.50000000000E+01 0.  0.
</event>
<event>
 4    1  0.4897575E-001  0.5000050E+01  0.7818608E-02  0.2136455E+00
        -11   -1    0    0    0    0  0.00000000000E+00  0.00000000000E+00  0.50000499739E+01  0.50000500000E+01  0.51100000000E-03 0.  1.
         11   -1    0    0    0    0 -0.00000000000E+00 -0.00000000000E+00 -0.50000499739E+01  0.50000500000E+01  0.51100000000E-03 0. -1.
     100001    1    1    2    0    0 -0.12302073547E-01  0.10469868309E-01  0.15461026617E-01  0.50000500000E+01  0.50000000000E+01 0.  1.
     100001    1    1    2    0    0  0.12302073547E-01 -0.10469868309E-01 -0.15461026617E-01  0.50000500000E+01  0.50000000000E+01 0.  0.
</event>
<event>
 4    1  0.4897575E-001  0.5000050E+01  0.7818608E-02  0.2136455E+00
        -11   -1    0    0    0    0  0.00000000000E+00  0.00000000000E+00  0.50000499739E+01  0.50000500000E+01  0.51100000000E-03 0.  1.
         11   -1    0    0    0    0 -0.00000000000E+00 -0.00000000000E+00 -0.50000499739E+01  0.50000500000E+01  0.51100000000E-03 0. -1.
     100001    1    1    2    0    0 -0.87034967081E-02 -0.12191979197E-01  0.16601424286E-01  0.50000500000E+01  0.50000000000E+01 0.  1.
     100001    1    1    2    0    0  0.87034967081E-02  0.12191979197E-01 -0.16601424286E-01  0.50000500000E+01  0.50000000000E+01 0.  0.
</event>
<event>
 4    1  0.4897575E-001  0.5000050E+01  0.7818608E-02  0.2136455E+00
        -11   -1    0    0    0    0  0.00000000000E+00  0.00000000000E+00  0.50000499739E+01  0.50000500000E+01  0.51100000000E-03 0. -1.
         11   -1    0    0    0    0 -0.00000000000E+00 -0.00000000000E+00 -0.50000499739E+01  0.50000500000E+01  0.51100000000E-03 0.  1.
     100001    1    1    2    0    0  0.20817674698E-02  0.18035676683E-01  0.13053088170E-01  0.50000500000E+01  0.50000000000E+01 0.  0.
     100001    1    1    2    0    0 -0.20817674698E-02 -0.18035676683E-01 -0.13053088170E-01  0.50000500000E+01  0.50000000000E+01 0.  0.
</event>
<event>
 4    1  0.4897575E-001  0.5000050E+01  0.7818608E-02  0.2136455E+00
        -11   -1    0    0    0    0  0.00000000000E+00  0.00000000000E+00  0.50000499739E+01  0.50000500000E+01  0.51100000000E-03 0.  1.
         11   -1    0    0    0    0 -0.00000000000E+00 -0.00000000000E+00 -0.50000499739E+01  0.50000500000E+01  0.51100000000E-03 0. -1.
     100001    1    1    2    0    0 -0.61938379732E-02 -0.21446200078E-01 -0.13036001657E-02  0.50000500000E+01  0.50000000000E+01 0.  0.
     100001    1    1    2    0    0  0.61938379732E-02  0.21446200078E-01  0.13036001657E-02  0.50000500000E+01  0.50000000000E+01 0.  1.
</event>
<event>
 4    1  0.4897575E-001  0.5000050E+01  0.7818608E-02  0.2136455E+00
        -11   -1    0    0    0    0  0.00000000000E+00  0.00000000000E+00  0.50000499739E+01  0.50000500000E+01  0.51100000000E-03 0.  1.
         11   -1    0    0    0    0 -0.00000000000E+00 -0.00000000000E+00 -0.50000499739E+01  0.50000500000E+01  0.51100000000E-03 0. -1.
     100001    1    1    2    0    0 -0.18533744055E-01  0.80380681534E-02 -0.95860467177E-02  0.50000500000E+01  0.50000000000E+01 0.  0.
     100001    1    1    2    0    0  0.18533744055E-01 -0.80380681534E-02  0.95860467177E-02  0.50000500000E+01  0.50000000000E+01 0.  0.
</event>
<event>
 4    1  0.4897575E-001  0.5000050E+01  0.7818608E-02  0.2136455E+00
        -11   -1    0    0    0    0  0.00000000000E+00  0.00000000000E+00  0.50000499739E+01  0.50000500000E+01  0.51100000000E-03 0.  1.
         11   -1    0    0    0    0 -0.00000000000E+00 -0.00000000000E+00 -0.50000499739E+01  0.50000500000E+01  0.51100000000E-03 0. -1.
     100001    1    1    2    0    0  0.21312977204E-01  0.55269391762E-02 -0.39003135835E-02  0.50000500000E+01  0.50000000000E+01 0. -1.
     100001    1    1    2    0    0 -0.21312977204E-01 -0.55269391762E-02  0.39003135835E-02  0.50000500000E+01  0.50000000000E+01 0.  0.
</event>
<event>
 4    1  0.4897575E-001  0.5000050E+01  0.7818608E-02  0.2136455E+00
        -11   -1    0    0    0    0  0.00000000000E+00  0.00000000000E+00  0.50000499739E+01  0.50000500000E+01  0.51100000000E-03 0. -1.
         11   -1    0    0    0    0 -0.00000000000E+00 -0.00000000000E+00 -0.50000499739E+01  0.50000500000E+01  0.51100000000E-03 0.  1.
     100001    1    1    2    0    0  0.18395317360E-01 -0.60891935382E-02 -0.11159593239E-01  0.50000500000E+01  0.50000000000E+01 0.  1.
     100001    1    1    2    0    0 -0.18395317360E-01  0.60891935382E-02  0.11159593239E-01  0.50000500000E+01  0.50000000000E+01 0. -1.
</event>
<event>
 4    1  0.4897575E-001  0.5000050E+01  0.7818608E-02  0.2136455E+00
        -11   -1    0    0    0    0  0.00000000000E+00  0.00000000000E+00  0.50000499739E+01  0.50000500000E+01  0.51100000000E-03 0.  1.
         11   -1    0    0    0    0 -0.00000000000E+00 -0.00000000000E+00 -0.50000499739E+01  0.50000500000E+01  0.51100000000E-03 0. -1.
     100001    1    1    2    0    0 -0.20264848832E-02 -0.11166087738E-01  0.19266923565E-01  0.50000500000E+01  0.50000000000E+01 0. -1.
     100001    1    1    2    0    0  0.20264848832E-02  0.11166087738E-01 -0.19266923565E-01  0.50000500000E+01  0.50000000000E+01 0. -1.
</event>
<event>
 4    1  0.4897575E-001  0.5000050E+01  0.7818608E-02  0.2136455E+00
        -11   -1    0    0    0    0  0.00000000000E+00  0.00000000000E+00  0.50000499739E+01  0.50000500000E+01  0.51100000000E-03 0.  1.
         11   -1    0    0    0    0 -0.00000000000E+00 -0.00000000000E+00 -0.50000499739E+01  0.50000500000E+01  0.51100000000E-03 0. -1.
     100001    1    1    2    0    0 -0.15365118990E-01  0.87316795945E-02  0.13699393778E-01  0.50000500000E+01  0.50000000000E+01 0.  1.
     100001    1    1    2    0    0  0.15365118990E-01 -0.87316795945E-02 -0.13699393778E-01  0.50000500000E+01  0.50000000000E+01 0. -1.
</event>
<event>
 4    1  0.4897575E-001  0.5000050E+01  0.7818608E-02  0.2136455E+00
        -11   -1    0    0    0    0  0.00000000000E+00  0.00000000000E+00  0.50000499739E+01  0.50000500000E+01  0.51100000000E-03 0.  1.
         11   -1    0    0    0    0 -0.00000000000E+00 -0.00000000000E+00 -0.50000499739E+01  0.50000500000E+01  0.51100000000E-03 0. -1.
     100001    1    1    2    0    0 -0.51310131376E-02  0.21372786239E-01  0.41084318868E-02  0.50000500000E+01  0.50000000000E+01 0. -1.
     100001    1    1    2    0    0  0.51310131376E-02 -0.21372786239E-01 -0.41084318868E-02  0.50000500000E+01  0.50000000000E+01 0.  0.
</event>
<event>
 4    1  0.4897575E-001  0.5000050E+01  0.7818608E-02  0.2136455E+00
        -11   -1    0    0    0    0  0.00000000000E+00  0.00000000000E+00  0.50000499739E+01  0.50000500000E+01  0.51100000000E-03 0.  1.
         11   -1    0    0    0    0 -0.00000000000E+00 -0.00000000000E+00 -0.50000499739E+01  0.50000500000E+01  0.51100000000E-03 0. -1.
     100001    1    1    2    0    0  0.10257265248E-01  0.40460416160E-02  0.19453034644E-01  0.50000500000E+01  0.50000000000E+01 0.  1.
     100001    1    1    2    0    0 -0.10257265248E-01 -0.40460416160E-02 -0.19453034644E-01  0.50000500000E+01  0.50000000000E+01 0.  1.
</event>
<event>
 4    1  0.4897575E-001  0.5000050E+01  0.7818608E-02  0.2136455E+00
        -11   -1    0    0    0    0  0.00000000000E+00  0.00000000000E+00  0.50000499739E+01  0.50000500000E+01  0.51100000000E-03 0. -1.
         11   -1    0    0    0    0 -0.00000000000E+00 -0.00000000000E+00 -0.50000499739E+01  0.50000500000E+01  0.51100000000E-03 0.  1.
     100001    1    1    2    0    0 -0.13494962454E-01 -0.17471008042E-01 -0.35570164976E-02  0.50000500000E+01  0.50000000000E+01 0.  1.
     100001    1    1    2    0    0  0.13494962454E-01  0.17471008042E-01  0.35570164976E-02  0.50000500000E+01  0.50000000000E+01 0.  0.
</event>
<event>
 4    1  0.4897575E-001  0.5000050E+01  0.7818608E-02  0.2136455E+00
        -11   -1    0    0    0    0  0.00000000000E+00  0.00000000000E+00  0.50000499739E+01  0.50000500000E+01  0.51100000000E-03 0. -1.
         11   -1    0    0    0    0 -0.00000000000E+00 -0.00000000000E+00 -0.50000499739E+01  0.50000500000E+01  0.51100000000E-03 0.  1.
     100001    1    1    2    0    0 -0.88574531495E-02 -0.20478502145E-01  0.14761346866E-02  0.50000500000E+01  0.50000000000E+01 0. -1.
     100001    1    1    2    0    0  0.88574531495E-02  0.20478502145E-01 -0.14761346866E-02  0.50000500000E+01  0.50000000000E+01 0.  1.
</event>
<event>
 4    1  0.4897575E-001  0.5000050E+01  0.7818608E-02  0.2136455E+00
        -11   -1    0    0    0    0  0.00000000000E+00  0.00000000000E+00  0.50000499739E+01  0.50000500000E+01  0.51100000000E-03 0.  1.
         11   -1    0    0    0    0 -0.00000000000E+00 -0.00000000000E+00 -0.50000499739E+01  0.50000500000E+01  0.51100000000E-03 0. -1.
     100001    1    1    2    0    0  0.70560857783E-02 -0.10977885449E-01 -0.18157648101E-01  0.50000500000E+01  0.50000000000E+01 0.  0.
     100001    1    1    2    0    0 -0.70560857783E-02  0.10977885449E-01  0.18157648101E-01  0.50000500000E+01  0.50000000000E+01 0. -1.
</event>
<event>
 4    1  0.4897575E-001  0.5000050E+01  0.7818608E-02  0.2136455E+00
        -11   -1    0    0    0    0  0.00000000000E+00  0.00000000000E+00  0.50000499739E+01  0.50000500000E+01  0.51100000000E-03 0. -1.
         11   -1    0    0    0    0 -0.00000000000E+00 -0.00000000000E+00 -0.50000499739E+01  0.50000500000E+01  0.51100000000E-03 0.  1.
     100001    1    1    2    0    0  0.22229757649E-01 -0.20265790667E-02 -0.13165683283E-02  0.50000500000E+01  0.50000000000E+01 0. -1.
     100001    1    1    2    0    0 -0.22229757649E-01  0.20265790667E-02  0.13165683283E-02  0.50000500000E+01  0.50000000000E+01 0.  1.
</event>
<event>
 4    1  0.4897575E-001  0.5000050E+01  0.7818608E-02  0.2136455E+00
        -11   -1    0    0    0    0  0.00000000000E+00  0.00000000000E+00  0.50000499739E+01  0.50000500000E+01  0.51100000000E-03 0.  1.
         11   -1    0    0    0    0 -0.00000000000E+00 -0.00000000000E+00 -0.50000499739E+01  0.50000500000E+01  0.51100000000E-03 0. -1.
     100001    1    1    2    0    0  0.28906424633E-02 -0.48202795292E-02 -0.21642818472E-01  0.50000500000E+01  0.50000000000E+01 0.  0.
     100001    1    1    2    0    0 -0.28906424633E-02  0.48202795292E-02  0.21642818472E-01  0.50000500000E+01  0.50000000000E+01 0.  1.
</event>
<event>
 4    1  0.1684464E+000  0.5000050E+01  0.7818608E-02  0.2136455E+00
        -11   -1    0    0    0    0  0.00000000000E+00  0.00000000000E+00  0.50000499739E+01  0.50000500000E+01  0.51100000000E-03 0. -1.
         11   -1    0    0    0    0 -0.00000000000E+00 -0.00000000000E+00 -0.50000499739E+01  0.50000500000E+01  0.51100000000E-03 0.  1.
     100001    1    1    2    0    0 -0.28888010755E-02 -0.21579099681E-03 -0.22172297188E-01  0.50000500000E+01  0.50000000000E+01 0.  0.
     100001    1    1    2    0    0  0.28888010755E-02  0.21579099681E-03  0.22172297188E-01  0.50000500000E+01  0.50000000000E+01 0. -1.
</event>
<event>
 4    1  0.4897575E-001  0.5000050E+01  0.7818608E-02  0.2136455E+00
        -11   -1    0    0    0    0  0.00000000000E+00  0.00000000000E+00  0.50000499739E+01  0.50000500000E+01  0.51100000000E-03 0. -1.
         11   -1    0    0    0    0 -0.00000000000E+00 -0.00000000000E+00 -0.50000499739E+01  0.50000500000E+01  0.51100000000E-03 0.  1.
     100001    1    1    2    0    0  0.19187803200E-02 -0.21476257803E-01 -0.59237769069E-02  0.50000500000E+01  0.50000000000E+01 0.  0.
     100001    1    1    2    0    0 -0.19187803200E-02  0.21476257803E-01  0.59237769069E-02  0.50000500000E+01  0.50000000000E+01 0.  0.
</event>
<event>
 4    1  0.4897575E-001  0.5000050E+01  0.7818608E-02  0.2136455E+00
        -11   -1    0    0    0    0  0.00000000000E+00  0.00000000000E+00  0.50000499739E+01  0.50000500000E+01  0.51100000000E-03 0.  1.
         11   -1    0    0    0    0 -0.00000000000E+00 -0.00000000000E+00 -0.50000499739E+01  0.50000500000E+01  0.51100000000E-03 0. -1.
     100001    1    1    2    0    0 -0.16181829170E-01  0.13298695669E-01  0.78291505421E-02  0.50000500000E+01  0.50000000000E+01 0.  0.
     100001    1    1    2    0    0  0.16181829170E-01 -0.13298695669E-01 -0.78291505421E-02  0.50000500000E+01  0.50000000000E+01 0.  0.
</event>
<event>
 4    1  0.4897575E-001  0.5000050E+01  0.7818608E-02  0.2136455E+00
        -11   -1    0    0    0    0  0.00000000000E+00  0.00000000000E+00  0.50000499739E+01  0.50000500000E+01  0.51100000000E-03 0.  1.
         11   -1    0    0    0    0 -0.00000000000E+00 -0.00000000000E+00 -0.50000499739E+01  0.50000500000E+01  0.51100000000E-03 0. -1.
     100001    1    1    2    0    0 -0.59130414452E-02 -0.77197634674E-02  0.20135632418E-01  0.50000500000E+01  0.50000000000E+01 0.  0.
     100001    1    1    2    0    0  0.59130414452E-02  0.77197634674E-02 -0.20135632418E-01  0.50000500000E+01  0.50000000000E+01 0.  0.
</event>
<event>
 4    1  0.4897575E-001  0.5000050E+01  0.7818608E-02  0.2136455E+00
        -11   -1    0    0    0    0  0.00000000000E+00  0.00000000000E+00  0.50000499739E+01  0.50000500000E+01  0.51100000000E-03 0. -1.
         11   -1    0    0    0    0 -0.00000000000E+00 -0.00000000000E+00 -0.50000499739E+01  0.50000500000E+01  0.51100000000E-03 0.  1.
     100001    1    1    2    0    0 -0.91328186702E-02  0.16051509774E-01  0.12607266044E-01  0.50000500000E+01  0.50000000000E+01 0.  1.
     100001    1    1    2    0    0  0.91328186702E-02 -0.16051509774E-01 -0.12607266044E-01  0.50000500000E+01  0.50000000000E+01 0.  1.
</event>
<event>
 4    1  0.4897575E-001  0.5000050E+01  0.7818608E-02  0.2136455E+00
        -11   -1    0    0    0    0  0.00000000000E+00  0.00000000000E+00  0.50000499739E+01  0.50000500000E+01  0.51100000000E-03 0. -1.
         11   -1    0    0    0    0 -0.00000000000E+00 -0.00000000000E+00 -0.50000499739E+01  0.50000500000E+01  0.51100000000E-03 0.  1.
     100001    1    1    2    0    0  0.53953923821E-02  0.10873516999E-01  0.18779213751E-01  0.50000500000E+01  0.50000000000E+01 0.  1.
     100001    1    1    2    0    0 -0.53953923821E-02 -0.10873516999E-01 -0.18779213751E-01  0.50000500000E+01  0.50000000000E+01 0.  1.
</event>
<event>
 4    1  0.4897575E-001  0.5000050E+01  0.7818608E-02  0.2136455E+00
        -11   -1    0    0    0    0  0.00000000000E+00  0.00000000000E+00  0.50000499739E+01  0.50000500000E+01  0.51100000000E-03 0. -1.
         11   -1    0    0    0    0 -0.00000000000E+00 -0.00000000000E+00 -0.50000499739E+01  0.50000500000E+01  0.51100000000E-03 0.  1.
     100001    1    1    2    0    0 -0.10293741925E-01 -0.58163037860E-02 -0.18979251499E-01  0.50000500000E+01  0.50000000000E+01 0.  0.
     100001    1    1    2    0    0  0.10293741925E-01  0.58163037860E-02  0.18979251499E-01  0.50000500000E+01  0.50000000000E+01 0. -1.
</event>
<event>
 4    1  0.4897575E-001  0.5000050E+01  0.7818608E-02  0.2136455E+00
        -11   -1    0    0    0    0  0.00000000000E+00  0.00000000000E+00  0.50000499739E+01  0.50000500000E+01  0.51100000000E-03 0.  1.
         11   -1    0    0    0    0 -0.00000000000E+00 -0.00000000000E+00 -0.50000499739E+01  0.50000500000E+01  0.51100000000E-03 0. -1.
     100001    1    1    2    0    0  0.20815885657E-01  0.59408093052E-02  0.56043009490E-02  0.50000500000E+01  0.50000000000E+01 0.  1.
     100001    1    1    2    0    0 -0.20815885657E-01 -0.59408093052E-02 -0.56043009490E-02  0.50000500000E+01  0.50000000000E+01 0. -1.
</event>
<event>
 4    1  0.4897575E-001  0.5000050E+01  0.7818608E-02  0.2136455E+00
        -11   -1    0    0    0    0  0.00000000000E+00  0.00000000000E+00  0.50000499739E+01  0.50000500000E+01  0.51100000000E-03 0.  1.
         11   -1    0    0    0    0 -0.00000000000E+00 -0.00000000000E+00 -0.50000499739E+01  0.50000500000E+01  0.51100000000E-03 0. -1.
     100001    1    1    2    0    0  0.78964176565E-02  0.11589516209E-01 -0.17416434831E-01  0.50000500000E+01  0.50000000000E+01 0. -1.
     100001    1    1    2    0    0 -0.78964176565E-02 -0.11589516209E-01  0.17416434831E-01  0.50000500000E+01  0.50000000000E+01 0.  1.
</event>
<event>
 4    1  0.4897575E-001  0.5000050E+01  0.7818608E-02  0.2136455E+00
        -11   -1    0    0    0    0  0.00000000000E+00  0.00000000000E+00  0.50000499739E+01  0.50000500000E+01  0.51100000000E-03 0.  1.
         11   -1    0    0    0    0 -0.00000000000E+00 -0.00000000000E+00 -0.50000499739E+01  0.50000500000E+01  0.51100000000E-03 0. -1.
     100001    1    1    2    0    0  0.93760900110E-02 -0.19796322647E-01 -0.44941123460E-02  0.50000500000E+01  0.50000000000E+01 0.  1.
     100001    1    1    2    0    0 -0.93760900110E-02  0.19796322647E-01  0.44941123460E-02  0.50000500000E+01  0.50000000000E+01 0.  0.
</event>
<event>
 4    1  0.4897575E-001  0.5000050E+01  0.7818608E-02  0.2136455E+00
        -11   -1    0    0    0    0  0.00000000000E+00  0.00000000000E+00  0.50000499739E+01  0.50000500000E+01  0.51100000000E-03 0.  1.
         11   -1    0    0    0    0 -0.00000000000E+00 -0.00000000000E+00 -0.50000499739E+01  0.50000500000E+01  0.51100000000E-03 0. -1.
     100001    1    1    2    0    0  0.11848454019E-01  0.18720841369E-01 -0.30243570892E-02  0.50000500000E+01  0.50000000000E+01 0.  0.
     100001    1    1    2    0    0 -0.11848454019E-01 -0.18720841369E-01  0.30243570892E-02  0.50000500000E+01  0.50000000000E+01 0. -1.
</event>
<event>
 4    1  0.4897575E-001  0.5000050E+01  0.7818608E-02  0.2136455E+00
        -11   -1    0    0    0    0  0.00000000000E+00  0.00000000000E+00  0.50000499739E+01  0.50000500000E+01  0.51100000000E-03 0. -1.
         11   -1    0    0    0    0 -0.00000000000E+00 -0.00000000000E+00 -0.50000499739E+01  0.50000500000E+01  0.51100000000E-03 0.  1.
     100001    1    1    2    0    0  0.12708484521E-01  0.72990939329E-02 -0.16888462006E-01  0.50000500000E+01  0.50000000000E+01 0.  0.
     100001    1    1    2    0    0 -0.12708484521E-01 -0.72990939329E-02  0.16888462006E-01  0.50000500000E+01  0.50000000000E+01 0.  0.
</event>
<event>
 4    1  0.4897575E-001  0.5000050E+01  0.7818608E-02  0.2136455E+00
        -11   -1    0    0    0    0  0.00000000000E+00  0.00000000000E+00  0.50000499739E+01  0.50000500000E+01  0.51100000000E-03 0.  1.
         11   -1    0    0    0    0 -0.00000000000E+00 -0.00000000000E+00 -0.50000499739E+01  0.50000500000E+01  0.51100000000E-03 0. -1.
     100001    1    1    2    0    0 -0.65403892740E-03  0.15313013988E-01 -0.16281472159E-01  0.50000500000E+01  0.50000000000E+01 0.  0.
     100001    1    1    2    0    0  0.65403892740E-03 -0.15313013988E-01  0.16281472159E-01  0.50000500000E+01  0.50000000000E+01 0.  0.
</event>
<event>
 4    1  0.4897575E-001  0.5000050E+01  0.7818608E-02  0.2136455E+00
        -11   -1    0    0    0    0  0.00000000000E+00  0.00000000000E+00  0.50000499739E+01  0.50000500000E+01  0.51100000000E-03 0.  1.
         11   -1    0    0    0    0 -0.00000000000E+00 -0.00000000000E+00 -0.50000499739E+01  0.50000500000E+01  0.51100000000E-03 0. -1.
     100001    1    1    2    0    0  0.18992075940E-01  0.37880486038E-02 -0.11178293218E-01  0.50000500000E+01  0.50000000000E+01 0. -1.
     100001    1    1    2    0    0 -0.18992075940E-01 -0.37880486038E-02  0.11178293218E-01  0.50000500000E+01  0.50000000000E+01 0.  1.
</event>
<event>
 4    1  0.4897575E-001  0.5000050E+01  0.7818608E-02  0.2136455E+00
        -11   -1    0    0    0    0  0.00000000000E+00  0.00000000000E+00  0.50000499739E+01  0.50000500000E+01  0.51100000000E-03 0. -1.
         11   -1    0    0    0    0 -0.00000000000E+00 -0.00000000000E+00 -0.50000499739E+01  0.50000500000E+01  0.51100000000E-03 0.  1.
     100001    1    1    2    0    0 -0.34589287774E-02  0.20033214672E-01 -0.93117464320E-02  0.50000500000E+01  0.50000000000E+01 0.  1.
     100001    1    1    2    0    0  0.34589287774E-02 -0.20033214672E-01  0.93117464320E-02  0.50000500000E+01  0.50000000000E+01 0.  0.
</event>
<event>
 4    1  0.4897575E-001  0.5000050E+01  0.7818608E-02  0.2136455E+00
        -11   -1    0    0    0    0  0.00000000000E+00  0.00000000000E+00  0.50000499739E+01  0.50000500000E+01  0.51100000000E-03 0. -1.
         11   -1    0    0    0    0 -0.00000000000E+00 -0.00000000000E+00 -0.50000499739E+01  0.50000500000E+01  0.51100000000E-03 0.  1.
     100001    1    1    2    0    0 -0.12617190237E-01  0.14414846548E-01  0.11533482108E-01  0.50000500000E+01  0.50000000000E+01 0.  0.
     100001    1    1    2    0    0  0.12617190237E-01 -0.14414846548E-01 -0.11533482108E-01  0.50000500000E+01  0.50000000000E+01 0. -1.
</event>
<event>
 4    1  0.4897575E-001  0.5000050E+01  0.7818608E-02  0.2136455E+00
        -11   -1    0    0    0    0  0.00000000000E+00  0.00000000000E+00  0.50000499739E+01  0.50000500000E+01  0.51100000000E-03 0.  1.
         11   -1    0    0    0    0 -0.00000000000E+00 -0.00000000000E+00 -0.50000499739E+01  0.50000500000E+01  0.51100000000E-03 0. -1.
     100001    1    1    2    0    0 -0.16188103231E-01  0.47382974703E-02  0.14679793965E-01  0.50000500000E+01  0.50000000000E+01 0.  1.
     100001    1    1    2    0    0  0.16188103231E-01 -0.47382974703E-02 -0.14679793965E-01  0.50000500000E+01  0.50000000000E+01 0. -1.
</event>
<event>
 4    1  0.4897575E-001  0.5000050E+01  0.7818608E-02  0.2136455E+00
        -11   -1    0    0    0    0  0.00000000000E+00  0.00000000000E+00  0.50000499739E+01  0.50000500000E+01  0.51100000000E-03 0. -1.
         11   -1    0    0    0    0 -0.00000000000E+00 -0.00000000000E+00 -0.50000499739E+01  0.50000500000E+01  0.51100000000E-03 0.  1.
     100001    1    1    2    0    0  0.15357666397E-01 -0.10342975606E-01 -0.12536643827E-01  0.50000500000E+01  0.50000000000E+01 0.  0.
     100001    1    1    2    0    0 -0.15357666397E-01  0.10342975606E-01  0.12536643827E-01  0.50000500000E+01  0.50000000000E+01 0.  0.
</event>
<event>
 4    1  0.4897575E-001  0.5000050E+01  0.7818608E-02  0.2136455E+00
        -11   -1    0    0    0    0  0.00000000000E+00  0.00000000000E+00  0.50000499739E+01  0.50000500000E+01  0.51100000000E-03 0. -1.
         11   -1    0    0    0    0 -0.00000000000E+00 -0.00000000000E+00 -0.50000499739E+01  0.50000500000E+01  0.51100000000E-03 0.  1.
     100001    1    1    2    0    0  0.20845829536E-01 -0.34327469316E-02 -0.73259906814E-02  0.50000500000E+01  0.50000000000E+01 0. -1.
     100001    1    1    2    0    0 -0.20845829536E-01  0.34327469316E-02  0.73259906814E-02  0.50000500000E+01  0.50000000000E+01 0.  0.
</event>
<event>
 4    1  0.4897575E-001  0.5000050E+01  0.7818608E-02  0.2136455E+00
        -11   -1    0    0    0    0  0.00000000000E+00  0.00000000000E+00  0.50000499739E+01  0.50000500000E+01  0.51100000000E-03 0.  1.
         11   -1    0    0    0    0 -0.00000000000E+00 -0.00000000000E+00 -0.50000499739E+01  0.50000500000E+01  0.51100000000E-03 0. -1.
     100001    1    1    2    0    0 -0.18560956736E-01  0.10128492519E-01  0.72737214909E-02  0.50000500000E+01  0.50000000000E+01 0.  0.
     100001    1    1    2    0    0  0.18560956736E-01 -0.10128492519E-01 -0.72737214909E-02  0.50000500000E+01  0.50000000000E+01 0.  1.
</event>
<event>
 4    1  0.4897575E-001  0.5000050E+01  0.7818608E-02  0.2136455E+00
        -11   -1    0    0    0    0  0.00000000000E+00  0.00000000000E+00  0.50000499739E+01  0.50000500000E+01  0.51100000000E-03 0.  1.
         11   -1    0    0    0    0 -0.00000000000E+00 -0.00000000000E+00 -0.50000499739E+01  0.50000500000E+01  0.51100000000E-03 0. -1.
     100001    1    1    2    0    0 -0.20592716919E-01  0.44041993878E-02 -0.75196766992E-02  0.50000500000E+01  0.50000000000E+01 0.  0.
     100001    1    1    2    0    0  0.20592716919E-01 -0.44041993878E-02  0.75196766992E-02  0.50000500000E+01  0.50000000000E+01 0. -1.
</event>
<event>
 4    1  0.4897575E-001  0.5000050E+01  0.7818608E-02  0.2136455E+00
        -11   -1    0    0    0    0  0.00000000000E+00  0.00000000000E+00  0.50000499739E+01  0.50000500000E+01  0.51100000000E-03 0.  1.
         11   -1    0    0    0    0 -0.00000000000E+00 -0.00000000000E+00 -0.50000499739E+01  0.50000500000E+01  0.51100000000E-03 0. -1.
     100001    1    1    2    0    0  0.26878555718E-02  0.14710724421E-01 -0.16624455463E-01  0.50000500000E+01  0.50000000000E+01 0.  0.
     100001    1    1    2    0    0 -0.26878555718E-02 -0.14710724421E-01  0.16624455463E-01  0.50000500000E+01  0.50000000000E+01 0.  0.
</event>
<event>
 4    1  0.4897575E-001  0.5000050E+01  0.7818608E-02  0.2136455E+00
        -11   -1    0    0    0    0  0.00000000000E+00  0.00000000000E+00  0.50000499739E+01  0.50000500000E+01  0.51100000000E-03 0.  1.
         11   -1    0    0    0    0 -0.00000000000E+00 -0.00000000000E+00 -0.50000499739E+01  0.50000500000E+01  0.51100000000E-03 0. -1.
     100001    1    1    2    0    0  0.45455025914E-02  0.26319776276E-02 -0.21735077639E-01  0.50000500000E+01  0.50000000000E+01 0. -1.
     100001    1    1    2    0    0 -0.45455025914E-02 -0.26319776276E-02  0.21735077639E-01  0.50000500000E+01  0.50000000000E+01 0.  0.
</event>
<event>
 4    1  0.4897575E-001  0.5000050E+01  0.7818608E-02  0.2136455E+00
        -11   -1    0    0    0    0  0.00000000000E+00  0.00000000000E+00  0.50000499739E+01  0.50000500000E+01  0.51100000000E-03 0.  1.
         11   -1    0    0    0    0 -0.00000000000E+00 -0.00000000000E+00 -0.50000499739E+01  0.50000500000E+01  0.51100000000E-03 0. -1.
     100001    1    1    2    0    0 -0.93535112272E-02  0.19511643978E-01 -0.56400422878E-02  0.50000500000E+01  0.50000000000E+01 0.  1.
     100001    1    1    2    0    0  0.93535112272E-02 -0.19511643978E-01  0.56400422878E-02  0.50000500000E+01  0.50000000000E+01 0.  0.
</event>
<event>
 4    1  0.4897575E-001  0.5000050E+01  0.7818608E-02  0.2136455E+00
        -11   -1    0    0    0    0  0.00000000000E+00  0.00000000000E+00  0.50000499739E+01  0.50000500000E+01  0.51100000000E-03 0. -1.
         11   -1    0    0    0    0 -0.00000000000E+00 -0.00000000000E+00 -0.50000499739E+01  0.50000500000E+01  0.51100000000E-03 0.  1.
     100001    1    1    2    0    0 -0.18628960423E-01  0.11924104542E-01  0.32833008431E-02  0.50000500000E+01  0.50000000000E+01 0.  0.
     100001    1    1    2    0    0  0.18628960423E-01 -0.11924104542E-01 -0.32833008431E-02  0.50000500000E+01  0.50000000000E+01 0.  0.
</event>
<event>
 4    1  0.4897575E-001  0.5000050E+01  0.7818608E-02  0.2136455E+00
        -11   -1    0    0    0    0  0.00000000000E+00  0.00000000000E+00  0.50000499739E+01  0.50000500000E+01  0.51100000000E-03 0.  1.
         11   -1    0    0    0    0 -0.00000000000E+00 -0.00000000000E+00 -0.50000499739E+01  0.50000500000E+01  0.51100000000E-03 0. -1.
     100001    1    1    2    0    0  0.15572181217E-01 -0.62141322981E-02 -0.14795074583E-01  0.50000500000E+01  0.50000000000E+01 0. -1.
     100001    1    1    2    0    0 -0.15572181217E-01  0.62141322981E-02  0.14795074583E-01  0.50000500000E+01  0.50000000000E+01 0. -1.
</event>
<event>
 4    1  0.4897575E-001  0.5000050E+01  0.7818608E-02  0.2136455E+00
        -11   -1    0    0    0    0  0.00000000000E+00  0.00000000000E+00  0.50000499739E+01  0.50000500000E+01  0.51100000000E-03 0. -1.
         11   -1    0    0    0    0 -0.00000000000E+00 -0.00000000000E+00 -0.50000499739E+01  0.50000500000E+01  0.51100000000E-03 0.  1.
     100001    1    1    2    0    0  0.18656276056E-01 -0.24456950111E-02  0.12081574385E-01  0.50000500000E+01  0.50000000000E+01 0.  0.
     100001    1    1    2    0    0 -0.18656276056E-01  0.24456950111E-02 -0.12081574385E-01  0.50000500000E+01  0.50000000000E+01 0. -1.
</event>
<event>
 4    1  0.4897575E-001  0.5000050E+01  0.7818608E-02  0.2136455E+00
        -11   -1    0    0    0    0  0.00000000000E+00  0.00000000000E+00  0.50000499739E+01  0.50000500000E+01  0.51100000000E-03 0. -1.
         11   -1    0    0    0    0 -0.00000000000E+00 -0.00000000000E+00 -0.50000499739E+01  0.50000500000E+01  0.51100000000E-03 0.  1.
     100001    1    1    2    0    0  0.12821200482E-01 -0.12315033522E-01  0.13563158465E-01  0.50000500000E+01  0.50000000000E+01 0. -1.
     100001    1    1    2    0    0 -0.12821200482E-01  0.12315033522E-01 -0.13563158465E-01  0.50000500000E+01  0.50000000000E+01 0.  1.
</event>
<event>
 4    1  0.4897575E-001  0.5000050E+01  0.7818608E-02  0.2136455E+00
        -11   -1    0    0    0    0  0.00000000000E+00  0.00000000000E+00  0.50000499739E+01  0.50000500000E+01  0.51100000000E-03 0. -1.
         11   -1    0    0    0    0 -0.00000000000E+00 -0.00000000000E+00 -0.50000499739E+01  0.50000500000E+01  0.51100000000E-03 0.  1.
     100001    1    1    2    0    0  0.78429994758E-02 -0.20363894933E-01  0.48786926926E-02  0.50000500000E+01  0.50000000000E+01 0. -1.
     100001    1    1    2    0    0 -0.78429994758E-02  0.20363894933E-01 -0.48786926926E-02  0.50000500000E+01  0.50000000000E+01 0.  1.
</event>
<event>
 4    1  0.4897575E-001  0.5000050E+01  0.7818608E-02  0.2136455E+00
        -11   -1    0    0    0    0  0.00000000000E+00  0.00000000000E+00  0.50000499739E+01  0.50000500000E+01  0.51100000000E-03 0. -1.
         11   -1    0    0    0    0 -0.00000000000E+00 -0.00000000000E+00 -0.50000499739E+01  0.50000500000E+01  0.51100000000E-03 0.  1.
     100001    1    1    2    0    0  0.21313817546E-01  0.54767623414E-02 -0.39659495530E-02  0.50000500000E+01  0.50000000000E+01 0.  1.
     100001    1    1    2    0    0 -0.21313817546E-01 -0.54767623414E-02  0.39659495530E-02  0.50000500000E+01  0.50000000000E+01 0. -1.
</event>
<event>
 4    1  0.4897575E-001  0.5000050E+01  0.7818608E-02  0.2136455E+00
        -11   -1    0    0    0    0  0.00000000000E+00  0.00000000000E+00  0.50000499739E+01  0.50000500000E+01  0.51100000000E-03 0. -1.
         11   -1    0    0    0    0 -0.00000000000E+00 -0.00000000000E+00 -0.50000499739E+01  0.50000500000E+01  0.51100000000E-03 0.  1.
     100001    1    1    2    0    0 -0.65459394081E-02 -0.21366414078E-01 -0.79342719362E-03  0.50000500000E+01  0.50000000000E+01 0.  1.
     100001    1    1    2    0    0  0.65459394081E-02  0.21366414078E-01  0.79342719362E-03  0.50000500000E+01  0.50000000000E+01 0.  0.
</event>
<event>
 4    1  0.4897575E-001  0.5000050E+01  0.7818608E-02  0.2136455E+00
        -11   -1    0    0    0    0  0.00000000000E+00  0.00000000000E+00  0.50000499739E+01  0.50000500000E+01  0.51100000000E-03 0. -1.
         11   -1    0    0    0    0 -0.00000000000E+00 -0.00000000000E+00 -0.50000499739E+01  0.50000500000E+01  0.51100000000E-03 0.  1.
     100001    1    1    2    0    0  0.43248338675E-02 -0.21885559938E-01 -0.15233444239E-02  0.50000500000E+01  0.50000000000E+01 0.  1.
     100001    1    1    2    0    0 -0.43248338675E-02  0.21885559938E-01  0.15233444239E-02  0.50000500000E+01  0.50000000000E+01 0. -1.
</event>
<event>
 4    1  0.4897575E-001  0.5000050E+01  0.7818608E-02  0.2136455E+00
        -11   -1    0    0    0    0  0.00000000000E+00  0.00000000000E+00  0.50000499739E+01  0.50000500000E+01  0.51100000000E-03 0. -1.
         11   -1    0    0    0    0 -0.00000000000E+00 -0.00000000000E+00 -0.50000499739E+01  0.50000500000E+01  0.51100000000E-03 0.  1.
     100001    1    1    2    0    0 -0.19082488288E-01  0.88410294029E-02  0.75958765020E-02  0.50000500000E+01  0.50000000000E+01 0.  0.
     100001    1    1    2    0    0  0.19082488288E-01 -0.88410294029E-02 -0.75958765020E-02  0.50000500000E+01  0.50000000000E+01 0.  0.
</event>
<event>
 4    1  0.4897575E-001  0.5000050E+01  0.7818608E-02  0.2136455E+00
        -11   -1    0    0    0    0  0.00000000000E+00  0.00000000000E+00  0.50000499739E+01  0.50000500000E+01  0.51100000000E-03 0. -1.
         11   -1    0    0    0    0 -0.00000000000E+00 -0.00000000000E+00 -0.50000499739E+01  0.50000500000E+01  0.51100000000E-03 0.  1.
     100001    1    1    2    0    0  0.15726639095E-01 -0.15837431244E-01  0.13605492926E-02  0.50000500000E+01  0.50000000000E+01 0. -1.
     100001    1    1    2    0    0 -0.15726639095E-01  0.15837431244E-01 -0.13605492926E-02  0.50000500000E+01  0.50000000000E+01 0.  0.
</event>
<event>
 4    1  0.4897575E-001  0.5000050E+01  0.7818608E-02  0.2136455E+00
        -11   -1    0    0    0    0  0.00000000000E+00  0.00000000000E+00  0.50000499739E+01  0.50000500000E+01  0.51100000000E-03 0.  1.
         11   -1    0    0    0    0 -0.00000000000E+00 -0.00000000000E+00 -0.50000499739E+01  0.50000500000E+01  0.51100000000E-03 0. -1.
     100001    1    1    2    0    0  0.15972056250E-01  0.15578004140E-01 -0.14905388912E-02  0.50000500000E+01  0.50000000000E+01 0. -1.
     100001    1    1    2    0    0 -0.15972056250E-01 -0.15578004140E-01  0.14905388912E-02  0.50000500000E+01  0.50000000000E+01 0.  1.
</event>
<event>
 4    1  0.4897575E-001  0.5000050E+01  0.7818608E-02  0.2136455E+00
        -11   -1    0    0    0    0  0.00000000000E+00  0.00000000000E+00  0.50000499739E+01  0.50000500000E+01  0.51100000000E-03 0.  1.
         11   -1    0    0    0    0 -0.00000000000E+00 -0.00000000000E+00 -0.50000499739E+01  0.50000500000E+01  0.51100000000E-03 0. -1.
     100001    1    1    2    0    0  0.57585836255E-02 -0.19888450919E-01  0.84433840768E-02  0.50000500000E+01  0.50000000000E+01 0.  1.
     100001    1    1    2    0    0 -0.57585836255E-02  0.19888450919E-01 -0.84433840768E-02  0.50000500000E+01  0.50000000000E+01 0. -1.
</event>
<event>
 4    1  0.4897575E-001  0.5000050E+01  0.7818608E-02  0.2136455E+00
        -11   -1    0    0    0    0  0.00000000000E+00  0.00000000000E+00  0.50000499739E+01  0.50000500000E+01  0.51100000000E-03 0.  1.
         11   -1    0    0    0    0 -0.00000000000E+00 -0.00000000000E+00 -0.50000499739E+01  0.50000500000E+01  0.51100000000E-03 0. -1.
     100001    1    1    2    0    0  0.51375285041E-02  0.20276624155E-01  0.79035949891E-02  0.50000500000E+01  0.50000000000E+01 0. -1.
     100001    1    1    2    0    0 -0.51375285041E-02 -0.20276624155E-01 -0.79035949891E-02  0.50000500000E+01  0.50000000000E+01 0. -1.
</event>
<event>
 4    1  0.4897575E-001  0.5000050E+01  0.7818608E-02  0.2136455E+00
        -11   -1    0    0    0    0  0.00000000000E+00  0.00000000000E+00  0.50000499739E+01  0.50000500000E+01  0.51100000000E-03 0. -1.
         11   -1    0    0    0    0 -0.00000000000E+00 -0.00000000000E+00 -0.50000499739E+01  0.50000500000E+01  0.51100000000E-03 0.  1.
     100001    1    1    2    0    0  0.17314402083E-01 -0.90106304325E-03  0.14120979637E-01  0.50000500000E+01  0.50000000000E+01 0. -1.
     100001    1    1    2    0    0 -0.17314402083E-01  0.90106304325E-03 -0.14120979637E-01  0.50000500000E+01  0.50000000000E+01 0.  1.
</event>
<event>
 4    1  0.4897575E-001  0.5000050E+01  0.7818608E-02  0.2136455E+00
        -11   -1    0    0    0    0  0.00000000000E+00  0.00000000000E+00  0.50000499739E+01  0.50000500000E+01  0.51100000000E-03 0. -1.
         11   -1    0    0    0    0 -0.00000000000E+00 -0.00000000000E+00 -0.50000499739E+01  0.50000500000E+01  0.51100000000E-03 0.  1.
     100001    1    1    2    0    0  0.11567816426E-01 -0.49324998166E-02 -0.18489417749E-01  0.50000500000E+01  0.50000000000E+01 0.  0.
     100001    1    1    2    0    0 -0.11567816426E-01  0.49324998166E-02  0.18489417749E-01  0.50000500000E+01  0.50000000000E+01 0.  0.
</event>
<event>
 4    1  0.4897575E-001  0.5000050E+01  0.7818608E-02  0.2136455E+00
        -11   -1    0    0    0    0  0.00000000000E+00  0.00000000000E+00  0.50000499739E+01  0.50000500000E+01  0.51100000000E-03 0.  1.
         11   -1    0    0    0    0 -0.00000000000E+00 -0.00000000000E+00 -0.50000499739E+01  0.50000500000E+01  0.51100000000E-03 0. -1.
     100001    1    1    2    0    0 -0.22101523671E-01 -0.28186675052E-02  0.18921588008E-02  0.50000500000E+01  0.50000000000E+01 0.  0.
     100001    1    1    2    0    0  0.22101523671E-01  0.28186675052E-02 -0.18921588008E-02  0.50000500000E+01  0.50000000000E+01 0.  1.
</event>
<event>
 4    1  0.4897575E-001  0.5000050E+01  0.7818608E-02  0.2136455E+00
        -11   -1    0    0    0    0  0.00000000000E+00  0.00000000000E+00  0.50000499739E+01  0.50000500000E+01  0.51100000000E-03 0.  1.
         11   -1    0    0    0    0 -0.00000000000E+00 -0.00000000000E+00 -0.50000499739E+01  0.50000500000E+01  0.51100000000E-03 0. -1.
     100001    1    1    2    0    0 -0.11788222134E-01  0.72545330932E-02 -0.17561664742E-01  0.50000500000E+01  0.50000000000E+01 0. -1.
     100001    1    1    2    0    0  0.11788222134E-01 -0.72545330932E-02  0.17561664742E-01  0.50000500000E+01  0.50000000000E+01 0.  1.
</event>
<event>
 4    1  0.4897575E-001  0.5000050E+01  0.7818608E-02  0.2136455E+00
        -11   -1    0    0    0    0  0.00000000000E+00  0.00000000000E+00  0.50000499739E+01  0.50000500000E+01  0.51100000000E-03 0. -1.
         11   -1    0    0    0    0 -0.00000000000E+00 -0.00000000000E+00 -0.50000499739E+01  0.50000500000E+01  0.51100000000E-03 0.  1.
     100001    1    1    2    0    0 -0.21671872038E-01  0.50343884819E-02 -0.22332476308E-02  0.50000500000E+01  0.50000000000E+01 0. -1.
     100001    1    1    2    0    0  0.21671872038E-01 -0.50343884819E-02  0.22332476308E-02  0.50000500000E+01  0.50000000000E+01 0.  0.
</event>
<event>
 4    1  0.4897575E-001  0.5000050E+01  0.7818608E-02  0.2136455E+00
        -11   -1    0    0    0    0  0.00000000000E+00  0.00000000000E+00  0.50000499739E+01  0.50000500000E+01  0.51100000000E-03 0. -1.
         11   -1    0    0    0    0 -0.00000000000E+00 -0.00000000000E+00 -0.50000499739E+01  0.50000500000E+01  0.51100000000E-03 0.  1.
     100001    1    1    2    0    0  0.21739584218E-01 -0.11613676930E-02 -0.51033521438E-02  0.50000500000E+01  0.50000000000E+01 0.  1.
     100001    1    1    2    0    0 -0.21739584218E-01  0.11613676930E-02  0.51033521438E-02  0.50000500000E+01  0.50000000000E+01 0. -1.
</event>
<event>
 4    1  0.4897575E-001  0.5000050E+01  0.7818608E-02  0.2136455E+00
        -11   -1    0    0    0    0  0.00000000000E+00  0.00000000000E+00  0.50000499739E+01  0.50000500000E+01  0.51100000000E-03 0. -1.
         11   -1    0    0    0    0 -0.00000000000E+00 -0.00000000000E+00 -0.50000499739E+01  0.50000500000E+01  0.51100000000E-03 0.  1.
     100001    1    1    2    0    0  0.14592109655E-01  0.73182364170E-02 -0.15281238548E-01  0.50000500000E+01  0.50000000000E+01 0.  0.
     100001    1    1    2    0    0 -0.14592109655E-01 -0.73182364170E-02  0.15281238548E-01  0.50000500000E+01  0.50000000000E+01 0.  0.
</event>
<event>
 4    1  0.4897575E-001  0.5000050E+01  0.7818608E-02  0.2136455E+00
        -11   -1    0    0    0    0  0.00000000000E+00  0.00000000000E+00  0.50000499739E+01  0.50000500000E+01  0.51100000000E-03 0. -1.
         11   -1    0    0    0    0 -0.00000000000E+00 -0.00000000000E+00 -0.50000499739E+01  0.50000500000E+01  0.51100000000E-03 0.  1.
     100001    1    1    2    0    0  0.83829302625E-02 -0.20680350389E-01 -0.14325110882E-02  0.50000500000E+01  0.50000000000E+01 0.  1.
     100001    1    1    2    0    0 -0.83829302625E-02  0.20680350389E-01  0.14325110882E-02  0.50000500000E+01  0.50000000000E+01 0. -1.
</event>
<event>
 4    1  0.4897575E-001  0.5000050E+01  0.7818608E-02  0.2136455E+00
        -11   -1    0    0    0    0  0.00000000000E+00  0.00000000000E+00  0.50000499739E+01  0.50000500000E+01  0.51100000000E-03 0. -1.
         11   -1    0    0    0    0 -0.00000000000E+00 -0.00000000000E+00 -0.50000499739E+01  0.50000500000E+01  0.51100000000E-03 0.  1.
     100001    1    1    2    0    0 -0.37598942484E-02 -0.10523722104E-01  0.19367936605E-01  0.50000500000E+01  0.50000000000E+01 0.  0.
     100001    1    1    2    0    0  0.37598942484E-02  0.10523722104E-01 -0.19367936605E-01  0.50000500000E+01  0.50000000000E+01 0.  1.
</event>
<event>
 4    1  0.4897575E-001  0.5000050E+01  0.7818608E-02  0.2136455E+00
        -11   -1    0    0    0    0  0.00000000000E+00  0.00000000000E+00  0.50000499739E+01  0.50000500000E+01  0.51100000000E-03 0.  1.
         11   -1    0    0    0    0 -0.00000000000E+00 -0.00000000000E+00 -0.50000499739E+01  0.50000500000E+01  0.51100000000E-03 0. -1.
     100001    1    1    2    0    0  0.66930145602E-02 -0.16735733063E-01  0.13233340279E-01  0.50000500000E+01  0.50000000000E+01 0. -1.
     100001    1    1    2    0    0 -0.66930145602E-02  0.16735733063E-01 -0.13233340279E-01  0.50000500000E+01  0.50000000000E+01 0.  0.
</event>
<event>
 4    1  0.4897575E-001  0.5000050E+01  0.7818608E-02  0.2136455E+00
        -11   -1    0    0    0    0  0.00000000000E+00  0.00000000000E+00  0.50000499739E+01  0.50000500000E+01  0.51100000000E-03 0. -1.
         11   -1    0    0    0    0 -0.00000000000E+00 -0.00000000000E+00 -0.50000499739E+01  0.50000500000E+01  0.51100000000E-03 0.  1.
     100001    1    1    2    0    0  0.28998474344E-02 -0.14492243679E-01 -0.16779995769E-01  0.50000500000E+01  0.50000000000E+01 0. -1.
     100001    1    1    2    0    0 -0.28998474344E-02  0.14492243679E-01  0.16779995769E-01  0.50000500000E+01  0.50000000000E+01 0. -1.
</event>
<event>
 4    1  0.4897575E-001  0.5000050E+01  0.7818608E-02  0.2136455E+00
        -11   -1    0    0    0    0  0.00000000000E+00  0.00000000000E+00  0.50000499739E+01  0.50000500000E+01  0.51100000000E-03 0. -1.
         11   -1    0    0    0    0 -0.00000000000E+00 -0.00000000000E+00 -0.50000499739E+01  0.50000500000E+01  0.51100000000E-03 0.  1.
     100001    1    1    2    0    0 -0.70959194160E-02  0.20814585739E-01  0.40501170527E-02  0.50000500000E+01  0.50000000000E+01 0.  0.
     100001    1    1    2    0    0  0.70959194160E-02 -0.20814585739E-01 -0.40501170527E-02  0.50000500000E+01  0.50000000000E+01 0.  1.
</event>
<event>
 4    1  0.4897575E-001  0.5000050E+01  0.7818608E-02  0.2136455E+00
        -11   -1    0    0    0    0  0.00000000000E+00  0.00000000000E+00  0.50000499739E+01  0.50000500000E+01  0.51100000000E-03 0.  1.
         11   -1    0    0    0    0 -0.00000000000E+00 -0.00000000000E+00 -0.50000499739E+01  0.50000500000E+01  0.51100000000E-03 0. -1.
     100001    1    1    2    0    0 -0.58567644154E-02 -0.19576297392E-01  0.90812659366E-02  0.50000500000E+01  0.50000000000E+01 0. -1.
     100001    1    1    2    0    0  0.58567644154E-02  0.19576297392E-01 -0.90812659366E-02  0.50000500000E+01  0.50000000000E+01 0.  1.
</event>
<event>
 4    1  0.4897575E-001  0.5000050E+01  0.7818608E-02  0.2136455E+00
        -11   -1    0    0    0    0  0.00000000000E+00  0.00000000000E+00  0.50000499739E+01  0.50000500000E+01  0.51100000000E-03 0. -1.
         11   -1    0    0    0    0 -0.00000000000E+00 -0.00000000000E+00 -0.50000499739E+01  0.50000500000E+01  0.51100000000E-03 0.  1.
     100001    1    1    2    0    0 -0.72499032776E-02 -0.21139698535E-01 -0.74468001287E-03  0.50000500000E+01  0.50000000000E+01 0.  1.
     100001    1    1    2    0    0  0.72499032776E-02  0.21139698535E-01  0.74468001287E-03  0.50000500000E+01  0.50000000000E+01 0.  0.
</event>
<event>
 4    1  0.4897575E-001  0.5000050E+01  0.7818608E-02  0.2136455E+00
        -11   -1    0    0    0    0  0.00000000000E+00  0.00000000000E+00  0.50000499739E+01  0.50000500000E+01  0.51100000000E-03 0. -1.
         11   -1    0    0    0    0 -0.00000000000E+00 -0.00000000000E+00 -0.50000499739E+01  0.50000500000E+01  0.51100000000E-03 0.  1.
     100001    1    1    2    0    0 -0.80792822546E-02 -0.20646909704E-01 -0.29039314609E-02  0.50000500000E+01  0.50000000000E+01 0.  1.
     100001    1    1    2    0    0  0.80792822546E-02  0.20646909704E-01  0.29039314609E-02  0.50000500000E+01  0.50000000000E+01 0. -1.
</event>
<event>
 4    1  0.4897575E-001  0.5000050E+01  0.7818608E-02  0.2136455E+00
        -11   -1    0    0    0    0  0.00000000000E+00  0.00000000000E+00  0.50000499739E+01  0.50000500000E+01  0.51100000000E-03 0.  1.
         11   -1    0    0    0    0 -0.00000000000E+00 -0.00000000000E+00 -0.50000499739E+01  0.50000500000E+01  0.51100000000E-03 0. -1.
     100001    1    1    2    0    0 -0.21918219847E-01 -0.31544789292E-02  0.31053826560E-02  0.50000500000E+01  0.50000000000E+01 0.  0.
     100001    1    1    2    0    0  0.21918219847E-01  0.31544789292E-02 -0.31053826560E-02  0.50000500000E+01  0.50000000000E+01 0.  1.
</event>
<event>
 4    1  0.4897575E-001  0.5000050E+01  0.7818608E-02  0.2136455E+00
        -11   -1    0    0    0    0  0.00000000000E+00  0.00000000000E+00  0.50000499739E+01  0.50000500000E+01  0.51100000000E-03 0.  1.
         11   -1    0    0    0    0 -0.00000000000E+00 -0.00000000000E+00 -0.50000499739E+01  0.50000500000E+01  0.51100000000E-03 0. -1.
     100001    1    1    2    0    0  0.53414756642E-02  0.27194715365E-02  0.21542414263E-01  0.50000500000E+01  0.50000000000E+01 0. -1.
     100001    1    1    2    0    0 -0.53414756642E-02 -0.27194715365E-02 -0.21542414263E-01  0.50000500000E+01  0.50000000000E+01 0. -1.
</event>
<event>
 4    1  0.4897575E-001  0.5000050E+01  0.7818608E-02  0.2136455E+00
        -11   -1    0    0    0    0  0.00000000000E+00  0.00000000000E+00  0.50000499739E+01  0.50000500000E+01  0.51100000000E-03 0. -1.
         11   -1    0    0    0    0 -0.00000000000E+00 -0.00000000000E+00 -0.50000499739E+01  0.50000500000E+01  0.51100000000E-03 0.  1.
     100001    1    1    2    0    0 -0.21858501534E-01 -0.28734713725E-02  0.37351804427E-02  0.50000500000E+01  0.50000000000E+01 0.  1.
     100001    1    1    2    0    0  0.21858501534E-01  0.28734713725E-02 -0.37351804427E-02  0.50000500000E+01  0.50000000000E+01 0.  0.
</event>
<event>
 4    1  0.4897575E-001  0.5000050E+01  0.7818608E-02  0.2136455E+00
        -11   -1    0    0    0    0  0.00000000000E+00  0.00000000000E+00  0.50000499739E+01  0.50000500000E+01  0.51100000000E-03 0.  1.
         11   -1    0    0    0    0 -0.00000000000E+00 -0.00000000000E+00 -0.50000499739E+01  0.50000500000E+01  0.51100000000E-03 0. -1.
     100001    1    1    2    0    0 -0.89959688518E-02 -0.11303665059E-01 -0.17067577468E-01  0.50000500000E+01  0.50000000000E+01 0.  0.
     100001    1    1    2    0    0  0.89959688518E-02  0.11303665059E-01  0.17067577468E-01  0.50000500000E+01  0.50000000000E+01 0.  1.
</event>
<event>
 4    1  0.4897575E-001  0.5000050E+01  0.7818608E-02  0.2136455E+00
        -11   -1    0    0    0    0  0.00000000000E+00  0.00000000000E+00  0.50000499739E+01  0.50000500000E+01  0.51100000000E-03 0. -1.
         11   -1    0    0    0    0 -0.00000000000E+00 -0.00000000000E+00 -0.50000499739E+01  0.50000500000E+01  0.51100000000E-03 0.  1.
     100001    1    1    2    0    0  0.22399984992E-02  0.77856674058E-02  0.20841504019E-01  0.50000500000E+01  0.50000000000E+01 0.  0.
     100001    1    1    2    0    0 -0.22399984992E-02 -0.77856674058E-02 -0.20841504019E-01  0.50000500000E+01  0.50000000000E+01 0.  1.
</event>
<event>
 4    1  0.4897575E-001  0.5000050E+01  0.7818608E-02  0.2136455E+00
        -11   -1    0    0    0    0  0.00000000000E+00  0.00000000000E+00  0.50000499739E+01  0.50000500000E+01  0.51100000000E-03 0.  1.
         11   -1    0    0    0    0 -0.00000000000E+00 -0.00000000000E+00 -0.50000499739E+01  0.50000500000E+01  0.51100000000E-03 0. -1.
     100001    1    1    2    0    0 -0.11312159253E-01  0.88275888206E-02 -0.17149671386E-01  0.50000500000E+01  0.50000000000E+01 0.  1.
     100001    1    1    2    0    0  0.11312159253E-01 -0.88275888206E-02  0.17149671386E-01  0.50000500000E+01  0.50000000000E+01 0.  0.
</event>
<event>
 4    1  0.4897575E-001  0.5000050E+01  0.7818608E-02  0.2136455E+00
        -11   -1    0    0    0    0  0.00000000000E+00  0.00000000000E+00  0.50000499739E+01  0.50000500000E+01  0.51100000000E-03 0.  1.
         11   -1    0    0    0    0 -0.00000000000E+00 -0.00000000000E+00 -0.50000499739E+01  0.50000500000E+01  0.51100000000E-03 0. -1.
     100001    1    1    2    0    0 -0.18895544170E-01 -0.69177122677E-02 -0.97522391022E-02  0.50000500000E+01  0.50000000000E+01 0.  1.
     100001    1    1    2    0    0  0.18895544170E-01  0.69177122677E-02  0.97522391022E-02  0.50000500000E+01  0.50000000000E+01 0. -1.
</event>
<event>
 4    1  0.4897575E-001  0.5000050E+01  0.7818608E-02  0.2136455E+00
        -11   -1    0    0    0    0  0.00000000000E+00  0.00000000000E+00  0.50000499739E+01  0.50000500000E+01  0.51100000000E-03 0. -1.
         11   -1    0    0    0    0 -0.00000000000E+00 -0.00000000000E+00 -0.50000499739E+01  0.50000500000E+01  0.51100000000E-03 0.  1.
     100001    1    1    2    0    0  0.24460029221E-02 -0.21429602133E-01 -0.58984508224E-02  0.50000500000E+01  0.50000000000E+01 0.  1.
     100001    1    1    2    0    0 -0.24460029221E-02  0.21429602133E-01  0.58984508224E-02  0.50000500000E+01  0.50000000000E+01 0. -1.
</event>
<event>
 4    1  0.4897575E-001  0.5000050E+01  0.7818608E-02  0.2136455E+00
        -11   -1    0    0    0    0  0.00000000000E+00  0.00000000000E+00  0.50000499739E+01  0.50000500000E+01  0.51100000000E-03 0.  1.
         11   -1    0    0    0    0 -0.00000000000E+00 -0.00000000000E+00 -0.50000499739E+01  0.50000500000E+01  0.51100000000E-03 0. -1.
     100001    1    1    2    0    0 -0.92917282776E-02 -0.15112931179E-01  0.13611230539E-01  0.50000500000E+01  0.50000000000E+01 0.  1.
     100001    1    1    2    0    0  0.92917282776E-02  0.15112931179E-01 -0.13611230539E-01  0.50000500000E+01  0.50000000000E+01 0. -1.
</event>
<event>
 4    1  0.4897575E-001  0.5000050E+01  0.7818608E-02  0.2136455E+00
        -11   -1    0    0    0    0  0.00000000000E+00  0.00000000000E+00  0.50000499739E+01  0.50000500000E+01  0.51100000000E-03 0. -1.
         11   -1    0    0    0    0 -0.00000000000E+00 -0.00000000000E+00 -0.50000499739E+01  0.50000500000E+01  0.51100000000E-03 0.  1.
     100001    1    1    2    0    0 -0.14456034395E-02  0.21829080793E-01  0.46264416586E-02  0.50000500000E+01  0.50000000000E+01 0. -1.
     100001    1    1    2    0    0  0.14456034395E-02 -0.21829080793E-01 -0.46264416586E-02  0.50000500000E+01  0.50000000000E+01 0.  1.
</event>
<event>
 4    1  0.4897575E-001  0.5000050E+01  0.7818608E-02  0.2136455E+00
        -11   -1    0    0    0    0  0.00000000000E+00  0.00000000000E+00  0.50000499739E+01  0.50000500000E+01  0.51100000000E-03 0. -1.
         11   -1    0    0    0    0 -0.00000000000E+00 -0.00000000000E+00 -0.50000499739E+01  0.50000500000E+01  0.51100000000E-03 0.  1.
     100001    1    1    2    0    0 -0.38475201618E-02 -0.97986291490E-02 -0.19727796517E-01  0.50000500000E+01  0.50000000000E+01 0. -1.
     100001    1    1    2    0    0  0.38475201618E-02  0.97986291490E-02  0.19727796517E-01  0.50000500000E+01  0.50000000000E+01 0. -1.
</event>
<event>
 4    1  0.4897575E-001  0.5000050E+01  0.7818608E-02  0.2136455E+00
        -11   -1    0    0    0    0  0.00000000000E+00  0.00000000000E+00  0.50000499739E+01  0.50000500000E+01  0.51100000000E-03 0.  1.
         11   -1    0    0    0    0 -0.00000000000E+00 -0.00000000000E+00 -0.50000499739E+01  0.50000500000E+01  0.51100000000E-03 0. -1.
     100001    1    1    2    0    0 -0.21499013731E-01  0.49476728703E-02 -0.36490329922E-02  0.50000500000E+01  0.50000000000E+01 0.  0.
     100001    1    1    2    0    0  0.21499013731E-01 -0.49476728703E-02  0.36490329922E-02  0.50000500000E+01  0.50000000000E+01 0. -1.
</event>
<event>
 4    1  0.4897575E-001  0.5000050E+01  0.7818608E-02  0.2136455E+00
        -11   -1    0    0    0    0  0.00000000000E+00  0.00000000000E+00  0.50000499739E+01  0.50000500000E+01  0.51100000000E-03 0.  1.
         11   -1    0    0    0    0 -0.00000000000E+00 -0.00000000000E+00 -0.50000499739E+01  0.50000500000E+01  0.51100000000E-03 0. -1.
     100001    1    1    2    0    0 -0.17639496898E-01 -0.13627496853E-01  0.17725627520E-02  0.50000500000E+01  0.50000000000E+01 0. -1.
     100001    1    1    2    0    0  0.17639496898E-01  0.13627496853E-01 -0.17725627520E-02  0.50000500000E+01  0.50000000000E+01 0.  0.
</event>
<event>
 4    1  0.4897575E-001  0.5000050E+01  0.7818608E-02  0.2136455E+00
        -11   -1    0    0    0    0  0.00000000000E+00  0.00000000000E+00  0.50000499739E+01  0.50000500000E+01  0.51100000000E-03 0.  1.
         11   -1    0    0    0    0 -0.00000000000E+00 -0.00000000000E+00 -0.50000499739E+01  0.50000500000E+01  0.51100000000E-03 0. -1.
     100001    1    1    2    0    0  0.10765390656E-01 -0.10444421625E-01 -0.16583815030E-01  0.50000500000E+01  0.50000000000E+01 0.  0.
     100001    1    1    2    0    0 -0.10765390656E-01  0.10444421625E-01  0.16583815030E-01  0.50000500000E+01  0.50000000000E+01 0. -1.
</event>
<event>
 4    1  0.4897575E-001  0.5000050E+01  0.7818608E-02  0.2136455E+00
        -11   -1    0    0    0    0  0.00000000000E+00  0.00000000000E+00  0.50000499739E+01  0.50000500000E+01  0.51100000000E-03 0. -1.
         11   -1    0    0    0    0 -0.00000000000E+00 -0.00000000000E+00 -0.50000499739E+01  0.50000500000E+01  0.51100000000E-03 0.  1.
     100001    1    1    2    0    0 -0.15141139040E-01 -0.96884252694E-02 -0.13299730237E-01  0.50000500000E+01  0.50000000000E+01 0.  1.
     100001    1    1    2    0    0  0.15141139040E-01  0.96884252694E-02  0.13299730237E-01  0.50000500000E+01  0.50000000000E+01 0. -1.
</event>
<event>
 4    1  0.4897575E-001  0.5000050E+01  0.7818608E-02  0.2136455E+00
        -11   -1    0    0    0    0  0.00000000000E+00  0.00000000000E+00  0.50000499739E+01  0.50000500000E+01  0.51100000000E-03 0. -1.
         11   -1    0    0    0    0 -0.00000000000E+00 -0.00000000000E+00 -0.50000499739E+01  0.50000500000E+01  0.51100000000E-03 0.  1.
     100001    1    1    2    0    0 -0.21239465137E-01  0.69105730063E-02 -0.10637675544E-02  0.50000500000E+01  0.50000000000E+01 0.  1.
     100001    1    1    2    0    0  0.21239465137E-01 -0.69105730063E-02  0.10637675544E-02  0.50000500000E+01  0.50000000000E+01 0.  0.
</event>
<event>
 4    1  0.4897575E-001  0.5000050E+01  0.7818608E-02  0.2136455E+00
        -11   -1    0    0    0    0  0.00000000000E+00  0.00000000000E+00  0.50000499739E+01  0.50000500000E+01  0.51100000000E-03 0. -1.
         11   -1    0    0    0    0 -0.00000000000E+00 -0.00000000000E+00 -0.50000499739E+01  0.50000500000E+01  0.51100000000E-03 0.  1.
     100001    1    1    2    0    0  0.69275230721E-02 -0.10492737371E-01  0.18490927141E-01  0.50000500000E+01  0.50000000000E+01 0. -1.
     100001    1    1    2    0    0 -0.69275230721E-02  0.10492737371E-01 -0.18490927141E-01  0.50000500000E+01  0.50000000000E+01 0.  1.
</event>
<event>
 4    1  0.4897575E-001  0.5000050E+01  0.7818608E-02  0.2136455E+00
        -11   -1    0    0    0    0  0.00000000000E+00  0.00000000000E+00  0.50000499739E+01  0.50000500000E+01  0.51100000000E-03 0.  1.
         11   -1    0    0    0    0 -0.00000000000E+00 -0.00000000000E+00 -0.50000499739E+01  0.50000500000E+01  0.51100000000E-03 0. -1.
     100001    1    1    2    0    0  0.89026591100E-02  0.18314573320E-01  0.92369672976E-02  0.50000500000E+01  0.50000000000E+01 0.  0.
     100001    1    1    2    0    0 -0.89026591100E-02 -0.18314573320E-01 -0.92369672976E-02  0.50000500000E+01  0.50000000000E+01 0.  1.
</event>
<event>
 4    1  0.4897575E-001  0.5000050E+01  0.7818608E-02  0.2136455E+00
        -11   -1    0    0    0    0  0.00000000000E+00  0.00000000000E+00  0.50000499739E+01  0.50000500000E+01  0.51100000000E-03 0.  1.
         11   -1    0    0    0    0 -0.00000000000E+00 -0.00000000000E+00 -0.50000499739E+01  0.50000500000E+01  0.51100000000E-03 0. -1.
     100001    1    1    2    0    0  0.16395131091E-01  0.87016013791E-02 -0.12469334784E-01  0.50000500000E+01  0.50000000000E+01 0.  0.
     100001    1    1    2    0    0 -0.16395131091E-01 -0.87016013791E-02  0.12469334784E-01  0.50000500000E+01  0.50000000000E+01 0. -1.
</event>
<event>
 4    1  0.4897575E-001  0.5000050E+01  0.7818608E-02  0.2136455E+00
        -11   -1    0    0    0    0  0.00000000000E+00  0.00000000000E+00  0.50000499739E+01  0.50000500000E+01  0.51100000000E-03 0. -1.
         11   -1    0    0    0    0 -0.00000000000E+00 -0.00000000000E+00 -0.50000499739E+01  0.50000500000E+01  0.51100000000E-03 0.  1.
     100001    1    1    2    0    0  0.56941353328E-02  0.11746866544E-01 -0.18154626110E-01  0.50000500000E+01  0.50000000000E+01 0.  1.
     100001    1    1    2    0    0 -0.56941353328E-02 -0.11746866544E-01  0.18154626110E-01  0.50000500000E+01  0.50000000000E+01 0. -1.
</event>
<event>
 4    1  0.4897575E-001  0.5000050E+01  0.7818608E-02  0.2136455E+00
        -11   -1    0    0    0    0  0.00000000000E+00  0.00000000000E+00  0.50000499739E+01  0.50000500000E+01  0.51100000000E-03 0. -1.
         11   -1    0    0    0    0 -0.00000000000E+00 -0.00000000000E+00 -0.50000499739E+01  0.50000500000E+01  0.51100000000E-03 0.  1.
     100001    1    1    2    0    0 -0.13854824860E-01 -0.85051411271E-02  0.15352814156E-01  0.50000500000E+01  0.50000000000E+01 0. -1.
     100001    1    1    2    0    0  0.13854824860E-01  0.85051411271E-02 -0.15352814156E-01  0.50000500000E+01  0.50000000000E+01 0.  1.
</event>
<event>
 4    1  0.4897575E-001  0.5000050E+01  0.7818608E-02  0.2136455E+00
        -11   -1    0    0    0    0  0.00000000000E+00  0.00000000000E+00  0.50000499739E+01  0.50000500000E+01  0.51100000000E-03 0. -1.
         11   -1    0    0    0    0 -0.00000000000E+00 -0.00000000000E+00 -0.50000499739E+01  0.50000500000E+01  0.51100000000E-03 0.  1.
     100001    1    1    2    0    0 -0.13125913612E-01 -0.61833600761E-02 -0.17014080933E-01  0.50000500000E+01  0.50000000000E+01 0.  1.
     100001    1    1    2    0    0  0.13125913612E-01  0.61833600761E-02  0.17014080933E-01  0.50000500000E+01  0.50000000000E+01 0. -1.
</event>
<event>
 4    1  0.4897575E-001  0.5000050E+01  0.7818608E-02  0.2136455E+00
        -11   -1    0    0    0    0  0.00000000000E+00  0.00000000000E+00  0.50000499739E+01  0.50000500000E+01  0.51100000000E-03 0.  1.
         11   -1    0    0    0    0 -0.00000000000E+00 -0.00000000000E+00 -0.50000499739E+01  0.50000500000E+01  0.51100000000E-03 0. -1.
     100001    1    1    2    0    0 -0.12227446391E-01  0.12249068640E-01  0.14158120363E-01  0.50000500000E+01  0.50000000000E+01 0.  1.
     100001    1    1    2    0    0  0.12227446391E-01 -0.12249068640E-01 -0.14158120363E-01  0.50000500000E+01  0.50000000000E+01 0.  0.
</event>
<event>
 4    1  0.4897575E-001  0.5000050E+01  0.7818608E-02  0.2136455E+00
        -11   -1    0    0    0    0  0.00000000000E+00  0.00000000000E+00  0.50000499739E+01  0.50000500000E+01  0.51100000000E-03 0. -1.
         11   -1    0    0    0    0 -0.00000000000E+00 -0.00000000000E+00 -0.50000499739E+01  0.50000500000E+01  0.51100000000E-03 0.  1.
     100001    1    1    2    0    0 -0.38105072503E-02  0.15232295258E-01  0.15920418200E-01  0.50000500000E+01  0.50000000000E+01 0. -1.
     100001    1    1    2    0    0  0.38105072503E-02 -0.15232295258E-01 -0.15920418200E-01  0.50000500000E+01  0.50000000000E+01 0.  1.
</event>
<event>
 4    1  0.4897575E-001  0.5000050E+01  0.7818608E-02  0.2136455E+00
        -11   -1    0    0    0    0  0.00000000000E+00  0.00000000000E+00  0.50000499739E+01  0.50000500000E+01  0.51100000000E-03 0. -1.
         11   -1    0    0    0    0 -0.00000000000E+00 -0.00000000000E+00 -0.50000499739E+01  0.50000500000E+01  0.51100000000E-03 0.  1.
     100001    1    1    2    0    0 -0.29796531880E-02  0.59253263353E-02 -0.21354500104E-01  0.50000500000E+01  0.50000000000E+01 0.  0.
     100001    1    1    2    0    0  0.29796531880E-02 -0.59253263353E-02  0.21354500104E-01  0.50000500000E+01  0.50000000000E+01 0. -1.
</event>
<event>
 4    1  0.4897575E-001  0.5000050E+01  0.7818608E-02  0.2136455E+00
        -11   -1    0    0    0    0  0.00000000000E+00  0.00000000000E+00  0.50000499739E+01  0.50000500000E+01  0.51100000000E-03 0. -1.
         11   -1    0    0    0    0 -0.00000000000E+00 -0.00000000000E+00 -0.50000499739E+01  0.50000500000E+01  0.51100000000E-03 0.  1.
     100001    1    1    2    0    0  0.92688716836E-02 -0.15655276889E-01 -0.13000108586E-01  0.50000500000E+01  0.50000000000E+01 0.  1.
     100001    1    1    2    0    0 -0.92688716836E-02  0.15655276889E-01  0.13000108586E-01  0.50000500000E+01  0.50000000000E+01 0. -1.
</event>
<event>
 4    1  0.4897575E-001  0.5000050E+01  0.7818608E-02  0.2136455E+00
        -11   -1    0    0    0    0  0.00000000000E+00  0.00000000000E+00  0.50000499739E+01  0.50000500000E+01  0.51100000000E-03 0. -1.
         11   -1    0    0    0    0 -0.00000000000E+00 -0.00000000000E+00 -0.50000499739E+01  0.50000500000E+01  0.51100000000E-03 0.  1.
     100001    1    1    2    0    0  0.24470971768E-03  0.17173565365E-01 -0.14318214616E-01  0.50000500000E+01  0.50000000000E+01 0.  0.
     100001    1    1    2    0    0 -0.24470971768E-03 -0.17173565365E-01  0.14318214616E-01  0.50000500000E+01  0.50000000000E+01 0.  0.
</event>
<event>
 4    1  0.4897575E-001  0.5000050E+01  0.7818608E-02  0.2136455E+00
        -11   -1    0    0    0    0  0.00000000000E+00  0.00000000000E+00  0.50000499739E+01  0.50000500000E+01  0.51100000000E-03 0.  1.
         11   -1    0    0    0    0 -0.00000000000E+00 -0.00000000000E+00 -0.50000499739E+01  0.50000500000E+01  0.51100000000E-03 0. -1.
     100001    1    1    2    0    0  0.99161936924E-02 -0.20039656676E-01 -0.28941832612E-03  0.50000500000E+01  0.50000000000E+01 0.  1.
     100001    1    1    2    0    0 -0.99161936924E-02  0.20039656676E-01  0.28941832612E-03  0.50000500000E+01  0.50000000000E+01 0. -1.
</event>
<event>
 4    1  0.4897575E-001  0.5000050E+01  0.7818608E-02  0.2136455E+00
        -11   -1    0    0    0    0  0.00000000000E+00  0.00000000000E+00  0.50000499739E+01  0.50000500000E+01  0.51100000000E-03 0. -1.
         11   -1    0    0    0    0 -0.00000000000E+00 -0.00000000000E+00 -0.50000499739E+01  0.50000500000E+01  0.51100000000E-03 0.  1.
     100001    1    1    2    0    0 -0.15741320864E-01 -0.13714322617E-01  0.80081628726E-02  0.50000500000E+01  0.50000000000E+01 0. -1.
     100001    1    1    2    0    0  0.15741320864E-01  0.13714322617E-01 -0.80081628726E-02  0.50000500000E+01  0.50000000000E+01 0.  1.
</event>
<event>
 4    1  0.4897575E-001  0.5000050E+01  0.7818608E-02  0.2136455E+00
        -11   -1    0    0    0    0  0.00000000000E+00  0.00000000000E+00  0.50000499739E+01  0.50000500000E+01  0.51100000000E-03 0. -1.
         11   -1    0    0    0    0 -0.00000000000E+00 -0.00000000000E+00 -0.50000499739E+01  0.50000500000E+01  0.51100000000E-03 0.  1.
     100001    1    1    2    0    0  0.17536396588E-02 -0.15881960585E-01 -0.15642588530E-01  0.50000500000E+01  0.50000000000E+01 0.  0.
     100001    1    1    2    0    0 -0.17536396588E-02  0.15881960585E-01  0.15642588530E-01  0.50000500000E+01  0.50000000000E+01 0. -1.
</event>
<event>
 4    1  0.4897575E-001  0.5000050E+01  0.7818608E-02  0.2136455E+00
        -11   -1    0    0    0    0  0.00000000000E+00  0.00000000000E+00  0.50000499739E+01  0.50000500000E+01  0.51100000000E-03 0.  1.
         11   -1    0    0    0    0 -0.00000000000E+00 -0.00000000000E+00 -0.50000499739E+01  0.50000500000E+01  0.51100000000E-03 0. -1.
     100001    1    1    2    0    0 -0.89797609446E-02  0.19938216680E-01 -0.46726768539E-02  0.50000500000E+01  0.50000000000E+01 0. -1.
     100001    1    1    2    0    0  0.89797609446E-02 -0.19938216680E-01  0.46726768539E-02  0.50000500000E+01  0.50000000000E+01 0.  1.
</event>
<event>
 4    1  0.4897575E-001  0.5000050E+01  0.7818608E-02  0.2136455E+00
        -11   -1    0    0    0    0  0.00000000000E+00  0.00000000000E+00  0.50000499739E+01  0.50000500000E+01  0.51100000000E-03 0.  1.
         11   -1    0    0    0    0 -0.00000000000E+00 -0.00000000000E+00 -0.50000499739E+01  0.50000500000E+01  0.51100000000E-03 0. -1.
     100001    1    1    2    0    0 -0.15161982228E-01  0.11271525890E-01 -0.11961166290E-01  0.50000500000E+01  0.50000000000E+01 0.  1.
     100001    1    1    2    0    0  0.15161982228E-01 -0.11271525890E-01  0.11961166290E-01  0.50000500000E+01  0.50000000000E+01 0.  1.
</event>
<event>
 4    1  0.4897575E-001  0.5000050E+01  0.7818608E-02  0.2136455E+00
        -11   -1    0    0    0    0  0.00000000000E+00  0.00000000000E+00  0.50000499739E+01  0.50000500000E+01  0.51100000000E-03 0.  1.
         11   -1    0    0    0    0 -0.00000000000E+00 -0.00000000000E+00 -0.50000499739E+01  0.50000500000E+01  0.51100000000E-03 0. -1.
     100001    1    1    2    0    0 -0.12652097515E-01  0.43206173226E-02  0.17923704818E-01  0.50000500000E+01  0.50000000000E+01 0.  0.
     100001    1    1    2    0    0  0.12652097515E-01 -0.43206173226E-02 -0.17923704818E-01  0.50000500000E+01  0.50000000000E+01 0. -1.
</event>
<event>
 4    1  0.4897575E-001  0.5000050E+01  0.7818608E-02  0.2136455E+00
        -11   -1    0    0    0    0  0.00000000000E+00  0.00000000000E+00  0.50000499739E+01  0.50000500000E+01  0.51100000000E-03 0. -1.
         11   -1    0    0    0    0 -0.00000000000E+00 -0.00000000000E+00 -0.50000499739E+01  0.50000500000E+01  0.51100000000E-03 0.  1.
     100001    1    1    2    0    0  0.99732684922E-02  0.12487758962E-01  0.15639446655E-01  0.50000500000E+01  0.50000000000E+01 0.  0.
     100001    1    1    2    0    0 -0.99732684922E-02 -0.12487758962E-01 -0.15639446655E-01  0.50000500000E+01  0.50000000000E+01 0.  0.
</event>
<event>
 4    1  0.4897575E-001  0.5000050E+01  0.7818608E-02  0.2136455E+00
        -11   -1    0    0    0    0  0.00000000000E+00  0.00000000000E+00  0.50000499739E+01  0.50000500000E+01  0.51100000000E-03 0. -1.
         11   -1    0    0    0    0 -0.00000000000E+00 -0.00000000000E+00 -0.50000499739E+01  0.50000500000E+01  0.51100000000E-03 0.  1.
     100001    1    1    2    0    0  0.37316859967E-02 -0.59613678385E-02 -0.21225906650E-01  0.50000500000E+01  0.50000000000E+01 0.  0.
     100001    1    1    2    0    0 -0.37316859967E-02  0.59613678385E-02  0.21225906650E-01  0.50000500000E+01  0.50000000000E+01 0. -1.
</event>
<event>
 4    1  0.4897575E-001  0.5000050E+01  0.7818608E-02  0.2136455E+00
        -11   -1    0    0    0    0  0.00000000000E+00  0.00000000000E+00  0.50000499739E+01  0.50000500000E+01  0.51100000000E-03 0. -1.
         11   -1    0    0    0    0 -0.00000000000E+00 -0.00000000000E+00 -0.50000499739E+01  0.50000500000E+01  0.51100000000E-03 0.  1.
     100001    1    1    2    0    0 -0.14593624317E-01 -0.16309777164E-01  0.45847353416E-02  0.50000500000E+01  0.50000000000E+01 0.  1.
     100001    1    1    2    0    0  0.14593624317E-01  0.16309777164E-01 -0.45847353416E-02  0.50000500000E+01  0.50000000000E+01 0. -1.
</event>
<event>
 4    1  0.4897575E-001  0.5000050E+01  0.7818608E-02  0.2136455E+00
        -11   -1    0    0    0    0  0.00000000000E+00  0.00000000000E+00  0.50000499739E+01  0.50000500000E+01  0.51100000000E-03 0.  1.
         11   -1    0    0    0    0 -0.00000000000E+00 -0.00000000000E+00 -0.50000499739E+01  0.50000500000E+01  0.51100000000E-03 0. -1.
     100001    1    1    2    0    0 -0.15881921429E-01  0.15447346782E-01 -0.30243262250E-02  0.50000500000E+01  0.50000000000E+01 0.  0.
     100001    1    1    2    0    0  0.15881921429E-01 -0.15447346782E-01  0.30243262250E-02  0.50000500000E+01  0.50000000000E+01 0. -1.
</event>
<event>
 4    1  0.4897575E-001  0.5000050E+01  0.7818608E-02  0.2136455E+00
        -11   -1    0    0    0    0  0.00000000000E+00  0.00000000000E+00  0.50000499739E+01  0.50000500000E+01  0.51100000000E-03 0. -1.
         11   -1    0    0    0    0 -0.00000000000E+00 -0.00000000000E+00 -0.50000499739E+01  0.50000500000E+01  0.51100000000E-03 0.  1.
     100001    1    1    2    0    0  0.10334439068E-01 -0.92824977911E-03 -0.19807579900E-01  0.50000500000E+01  0.50000000000E+01 0.  0.
     100001    1    1    2    0    0 -0.10334439068E-01  0.92824977911E-03  0.19807579900E-01  0.50000500000E+01  0.50000000000E+01 0. -1.
</event>
<event>
 4    1  0.4897575E-001  0.5000050E+01  0.7818608E-02  0.2136455E+00
        -11   -1    0    0    0    0  0.00000000000E+00  0.00000000000E+00  0.50000499739E+01  0.50000500000E+01  0.51100000000E-03 0.  1.
         11   -1    0    0    0    0 -0.00000000000E+00 -0.00000000000E+00 -0.50000499739E+01  0.50000500000E+01  0.51100000000E-03 0. -1.
     100001    1    1    2    0    0 -0.16808543870E-01 -0.14657744279E-01 -0.16204584606E-02  0.50000500000E+01  0.50000000000E+01 0.  1.
     100001    1    1    2    0    0  0.16808543870E-01  0.14657744279E-01  0.16204584606E-02  0.50000500000E+01  0.50000000000E+01 0. -1.
</event>
<event>
 4    1  0.4897575E-001  0.5000050E+01  0.7818608E-02  0.2136455E+00
        -11   -1    0    0    0    0  0.00000000000E+00  0.00000000000E+00  0.50000499739E+01  0.50000500000E+01  0.51100000000E-03 0.  1.
         11   -1    0    0    0    0 -0.00000000000E+00 -0.00000000000E+00 -0.50000499739E+01  0.50000500000E+01  0.51100000000E-03 0. -1.
     100001    1    1    2    0    0  0.21219321567E-01 -0.82376515500E-03  0.70045915799E-02  0.50000500000E+01  0.50000000000E+01 0. -1.
     100001    1    1    2    0    0 -0.21219321567E-01  0.82376515500E-03 -0.70045915799E-02  0.50000500000E+01  0.50000000000E+01 0.  1.
</event>
<event>
 4    1  0.4897575E-001  0.5000050E+01  0.7818608E-02  0.2136455E+00
        -11   -1    0    0    0    0  0.00000000000E+00  0.00000000000E+00  0.50000499739E+01  0.50000500000E+01  0.51100000000E-03 0. -1.
         11   -1    0    0    0    0 -0.00000000000E+00 -0.00000000000E+00 -0.50000499739E+01  0.50000500000E+01  0.51100000000E-03 0.  1.
     100001    1    1    2    0    0  0.84096948586E-02 -0.20142264392E-01  0.48547623565E-02  0.50000500000E+01  0.50000000000E+01 0. -1.
     100001    1    1    2    0    0 -0.84096948586E-02  0.20142264392E-01 -0.48547623565E-02  0.50000500000E+01  0.50000000000E+01 0.  1.
</event>
<event>
 4    1  0.4897575E-001  0.5000050E+01  0.7818608E-02  0.2136455E+00
        -11   -1    0    0    0    0  0.00000000000E+00  0.00000000000E+00  0.50000499739E+01  0.50000500000E+01  0.51100000000E-03 0. -1.
         11   -1    0    0    0    0 -0.00000000000E+00 -0.00000000000E+00 -0.50000499739E+01  0.50000500000E+01  0.51100000000E-03 0.  1.
     100001    1    1    2    0    0 -0.57545355820E-02 -0.98076176056E-02 -0.19253531030E-01  0.50000500000E+01  0.50000000000E+01 0.  1.
     100001    1    1    2    0    0  0.57545355820E-02  0.98076176056E-02  0.19253531030E-01  0.50000500000E+01  0.50000000000E+01 0. -1.
</event>
<event>
 4    1  0.4897575E-001  0.5000050E+01  0.7818608E-02  0.2136455E+00
        -11   -1    0    0    0    0  0.00000000000E+00  0.00000000000E+00  0.50000499739E+01  0.50000500000E+01  0.51100000000E-03 0.  1.
         11   -1    0    0    0    0 -0.00000000000E+00 -0.00000000000E+00 -0.50000499739E+01  0.50000500000E+01  0.51100000000E-03 0. -1.
     100001    1    1    2    0    0 -0.16837840398E-01  0.91231355096E-02  0.11543744159E-01  0.50000500000E+01  0.50000000000E+01 0.  0.
     100001    1    1    2    0    0  0.16837840398E-01 -0.91231355096E-02 -0.11543744159E-01  0.50000500000E+01  0.50000000000E+01 0.  0.
</event>
<event>
 4    1  0.4897575E-001  0.5000050E+01  0.7818608E-02  0.2136455E+00
        -11   -1    0    0    0    0  0.00000000000E+00  0.00000000000E+00  0.50000499739E+01  0.50000500000E+01  0.51100000000E-03 0.  1.
         11   -1    0    0    0    0 -0.00000000000E+00 -0.00000000000E+00 -0.50000499739E+01  0.50000500000E+01  0.51100000000E-03 0. -1.
     100001    1    1    2    0    0  0.78652795523E-03 -0.20145455394E-01 -0.96718406086E-02  0.50000500000E+01  0.50000000000E+01 0.  1.
     100001    1    1    2    0    0 -0.78652795523E-03  0.20145455394E-01  0.96718406086E-02  0.50000500000E+01  0.50000000000E+01 0.  1.
</event>
<event>
 4    1  0.4897575E-001  0.5000050E+01  0.7818608E-02  0.2136455E+00
        -11   -1    0    0    0    0  0.00000000000E+00  0.00000000000E+00  0.50000499739E+01  0.50000500000E+01  0.51100000000E-03 0. -1.
         11   -1    0    0    0    0 -0.00000000000E+00 -0.00000000000E+00 -0.50000499739E+01  0.50000500000E+01  0.51100000000E-03 0.  1.
     100001    1    1    2    0    0  0.17211672011E-02  0.68212259377E-02  0.21225243465E-01  0.50000500000E+01  0.50000000000E+01 0.  0.
     100001    1    1    2    0    0 -0.17211672011E-02 -0.68212259377E-02 -0.21225243465E-01  0.50000500000E+01  0.50000000000E+01 0.  1.
</event>
<event>
 4    1  0.4897575E-001  0.5000050E+01  0.7818608E-02  0.2136455E+00
        -11   -1    0    0    0    0  0.00000000000E+00  0.00000000000E+00  0.50000499739E+01  0.50000500000E+01  0.51100000000E-03 0.  1.
         11   -1    0    0    0    0 -0.00000000000E+00 -0.00000000000E+00 -0.50000499739E+01  0.50000500000E+01  0.51100000000E-03 0. -1.
     100001    1    1    2    0    0  0.16352778783E-01 -0.58403959637E-02 -0.14088254010E-01  0.50000500000E+01  0.50000000000E+01 0. -1.
     100001    1    1    2    0    0 -0.16352778783E-01  0.58403959637E-02  0.14088254010E-01  0.50000500000E+01  0.50000000000E+01 0.  1.
</event>
<event>
 4    1  0.4897575E-001  0.5000050E+01  0.7818608E-02  0.2136455E+00
        -11   -1    0    0    0    0  0.00000000000E+00  0.00000000000E+00  0.50000499739E+01  0.50000500000E+01  0.51100000000E-03 0. -1.
         11   -1    0    0    0    0 -0.00000000000E+00 -0.00000000000E+00 -0.50000499739E+01  0.50000500000E+01  0.51100000000E-03 0.  1.
     100001    1    1    2    0    0 -0.22186397894E-01 -0.11614305755E-02  0.25332444629E-02  0.50000500000E+01  0.50000000000E+01 0.  0.
     100001    1    1    2    0    0  0.22186397894E-01  0.11614305755E-02 -0.25332444629E-02  0.50000500000E+01  0.50000000000E+01 0.  1.
</event>
<event>
 4    1  0.4897575E-001  0.5000050E+01  0.7818608E-02  0.2136455E+00
        -11   -1    0    0    0    0  0.00000000000E+00  0.00000000000E+00  0.50000499739E+01  0.50000500000E+01  0.51100000000E-03 0. -1.
         11   -1    0    0    0    0 -0.00000000000E+00 -0.00000000000E+00 -0.50000499739E+01  0.50000500000E+01  0.51100000000E-03 0.  1.
     100001    1    1    2    0    0  0.79715825871E-02 -0.73648442816E-02  0.19550330937E-01  0.50000500000E+01  0.50000000000E+01 0.  0.
     100001    1    1    2    0    0 -0.79715825871E-02  0.73648442816E-02 -0.19550330937E-01  0.50000500000E+01  0.50000000000E+01 0.  1.
</event>
<event>
 4    1  0.4897575E-001  0.5000050E+01  0.7818608E-02  0.2136455E+00
        -11   -1    0    0    0    0  0.00000000000E+00  0.00000000000E+00  0.50000499739E+01  0.50000500000E+01  0.51100000000E-03 0. -1.
         11   -1    0    0    0    0 -0.00000000000E+00 -0.00000000000E+00 -0.50000499739E+01  0.50000500000E+01  0.51100000000E-03 0.  1.
     100001    1    1    2    0    0 -0.66309183514E-02  0.21049461737E-01  0.35991085578E-02  0.50000500000E+01  0.50000000000E+01 0.  1.
     100001    1    1    2    0    0  0.66309183514E-02 -0.21049461737E-01 -0.35991085578E-02  0.50000500000E+01  0.50000000000E+01 0.  0.
</event>
<event>
 4    1  0.4897575E-001  0.5000050E+01  0.7818608E-02  0.2136455E+00
        -11   -1    0    0    0    0  0.00000000000E+00  0.00000000000E+00  0.50000499739E+01  0.50000500000E+01  0.51100000000E-03 0.  1.
         11   -1    0    0    0    0 -0.00000000000E+00 -0.00000000000E+00 -0.50000499739E+01  0.50000500000E+01  0.51100000000E-03 0. -1.
     100001    1    1    2    0    0  0.20624622191E-01  0.83284043071E-02 -0.22945895389E-02  0.50000500000E+01  0.50000000000E+01 0. -1.
     100001    1    1    2    0    0 -0.20624622191E-01 -0.83284043071E-02  0.22945895389E-02  0.50000500000E+01  0.50000000000E+01 0.  1.
</event>
<event>
 4    1  0.4897575E-001  0.5000050E+01  0.7818608E-02  0.2136455E+00
        -11   -1    0    0    0    0  0.00000000000E+00  0.00000000000E+00  0.50000499739E+01  0.50000500000E+01  0.51100000000E-03 0.  1.
         11   -1    0    0    0    0 -0.00000000000E+00 -0.00000000000E+00 -0.50000499739E+01  0.50000500000E+01  0.51100000000E-03 0. -1.
     100001    1    1    2    0    0 -0.30337217014E-02  0.21388415242E-01  0.57736233051E-02  0.50000500000E+01  0.50000000000E+01 0.  1.
     100001    1    1    2    0    0  0.30337217014E-02 -0.21388415242E-01 -0.57736233051E-02  0.50000500000E+01  0.50000000000E+01 0. -1.
</event>
<event>
 4    1  0.4897575E-001  0.5000050E+01  0.7818608E-02  0.2136455E+00
        -11   -1    0    0    0    0  0.00000000000E+00  0.00000000000E+00  0.50000499739E+01  0.50000500000E+01  0.51100000000E-03 0.  1.
         11   -1    0    0    0    0 -0.00000000000E+00 -0.00000000000E+00 -0.50000499739E+01  0.50000500000E+01  0.51100000000E-03 0. -1.
     100001    1    1    2    0    0 -0.81101362384E-02  0.18910483514E-01 -0.87533881123E-02  0.50000500000E+01  0.50000000000E+01 0. -1.
     100001    1    1    2    0    0  0.81101362384E-02 -0.18910483514E-01  0.87533881123E-02  0.50000500000E+01  0.50000000000E+01 0.  1.
</event>
<event>
 4    1  0.4897575E-001  0.5000050E+01  0.7818608E-02  0.2136455E+00
        -11   -1    0    0    0    0  0.00000000000E+00  0.00000000000E+00  0.50000499739E+01  0.50000500000E+01  0.51100000000E-03 0. -1.
         11   -1    0    0    0    0 -0.00000000000E+00 -0.00000000000E+00 -0.50000499739E+01  0.50000500000E+01  0.51100000000E-03 0.  1.
     100001    1    1    2    0    0 -0.11135858337E-01  0.13233486580E-01  0.14172861110E-01  0.50000500000E+01  0.50000000000E+01 0. -1.
     100001    1    1    2    0    0  0.11135858337E-01 -0.13233486580E-01 -0.14172861110E-01  0.50000500000E+01  0.50000000000E+01 0. -1.
</event>
<event>
 4    1  0.4897575E-001  0.5000050E+01  0.7818608E-02  0.2136455E+00
        -11   -1    0    0    0    0  0.00000000000E+00  0.00000000000E+00  0.50000499739E+01  0.50000500000E+01  0.51100000000E-03 0.  1.
         11   -1    0    0    0    0 -0.00000000000E+00 -0.00000000000E+00 -0.50000499739E+01  0.50000500000E+01  0.51100000000E-03 0. -1.
     100001    1    1    2    0    0 -0.21730692921E-01  0.23112888088E-02 -0.47368163573E-02  0.50000500000E+01  0.50000000000E+01 0.  1.
     100001    1    1    2    0    0  0.21730692921E-01 -0.23112888088E-02  0.47368163573E-02  0.50000500000E+01  0.50000000000E+01 0. -1.
</event>
<event>
 4    1  0.4897575E-001  0.5000050E+01  0.7818608E-02  0.2136455E+00
        -11   -1    0    0    0    0  0.00000000000E+00  0.00000000000E+00  0.50000499739E+01  0.50000500000E+01  0.51100000000E-03 0. -1.
         11   -1    0    0    0    0 -0.00000000000E+00 -0.00000000000E+00 -0.50000499739E+01  0.50000500000E+01  0.51100000000E-03 0.  1.
     100001    1    1    2    0    0  0.14255785186E-01 -0.14538036763E-01 -0.92423252379E-02  0.50000500000E+01  0.50000000000E+01 0.  1.
     100001    1    1    2    0    0 -0.14255785186E-01  0.14538036763E-01  0.92423252379E-02  0.50000500000E+01  0.50000000000E+01 0. -1.
</event>
<event>
 4    1  0.4897575E-001  0.5000050E+01  0.7818608E-02  0.2136455E+00
        -11   -1    0    0    0    0  0.00000000000E+00  0.00000000000E+00  0.50000499739E+01  0.50000500000E+01  0.51100000000E-03 0. -1.
         11   -1    0    0    0    0 -0.00000000000E+00 -0.00000000000E+00 -0.50000499739E+01  0.50000500000E+01  0.51100000000E-03 0.  1.
     100001    1    1    2    0    0 -0.64946831259E-02  0.19984231626E-01 -0.76453958306E-02  0.50000500000E+01  0.50000000000E+01 0.  1.
     100001    1    1    2    0    0  0.64946831259E-02 -0.19984231626E-01  0.76453958306E-02  0.50000500000E+01  0.50000000000E+01 0. -1.
</event>
<event>
 4    1  0.4897575E-001  0.5000050E+01  0.7818608E-02  0.2136455E+00
        -11   -1    0    0    0    0  0.00000000000E+00  0.00000000000E+00  0.50000499739E+01  0.50000500000E+01  0.51100000000E-03 0.  1.
         11   -1    0    0    0    0 -0.00000000000E+00 -0.00000000000E+00 -0.50000499739E+01  0.50000500000E+01  0.51100000000E-03 0. -1.
     100001    1    1    2    0    0 -0.17335401301E-01  0.13128174116E-01  0.52093575533E-02  0.50000500000E+01  0.50000000000E+01 0.  1.
     100001    1    1    2    0    0  0.17335401301E-01 -0.13128174116E-01 -0.52093575533E-02  0.50000500000E+01  0.50000000000E+01 0. -1.
</event>
<event>
 4    1  0.4897575E-001  0.5000050E+01  0.7818608E-02  0.2136455E+00
        -11   -1    0    0    0    0  0.00000000000E+00  0.00000000000E+00  0.50000499739E+01  0.50000500000E+01  0.51100000000E-03 0.  1.
         11   -1    0    0    0    0 -0.00000000000E+00 -0.00000000000E+00 -0.50000499739E+01  0.50000500000E+01  0.51100000000E-03 0. -1.
     100001    1    1    2    0    0 -0.17442693524E-01 -0.12045015972E-01  0.71184642202E-02  0.50000500000E+01  0.50000000000E+01 0.  1.
     100001    1    1    2    0    0  0.17442693524E-01  0.12045015972E-01 -0.71184642202E-02  0.50000500000E+01  0.50000000000E+01 0. -1.
</event>
<event>
 4    1  0.4897575E-001  0.5000050E+01  0.7818608E-02  0.2136455E+00
        -11   -1    0    0    0    0  0.00000000000E+00  0.00000000000E+00  0.50000499739E+01  0.50000500000E+01  0.51100000000E-03 0.  1.
         11   -1    0    0    0    0 -0.00000000000E+00 -0.00000000000E+00 -0.50000499739E+01  0.50000500000E+01  0.51100000000E-03 0. -1.
     100001    1    1    2    0    0 -0.21351010703E-02 -0.21165618303E-01  0.68891541771E-02  0.50000500000E+01  0.50000000000E+01 0.  0.
     100001    1    1    2    0    0  0.21351010703E-02  0.21165618303E-01 -0.68891541771E-02  0.50000500000E+01  0.50000000000E+01 0.  1.
</event>
<event>
 4    1  0.4897575E-001  0.5000050E+01  0.7818608E-02  0.2136455E+00
        -11   -1    0    0    0    0  0.00000000000E+00  0.00000000000E+00  0.50000499739E+01  0.50000500000E+01  0.51100000000E-03 0.  1.
         11   -1    0    0    0    0 -0.00000000000E+00 -0.00000000000E+00 -0.50000499739E+01  0.50000500000E+01  0.51100000000E-03 0. -1.
     100001    1    1    2    0    0  0.15011252861E-01  0.89014444891E-02  0.13979594899E-01  0.50000500000E+01  0.50000000000E+01 0.  1.
     100001    1    1    2    0    0 -0.15011252861E-01 -0.89014444891E-02 -0.13979594899E-01  0.50000500000E+01  0.50000000000E+01 0. -1.
</event>
<event>
 4    1  0.4897575E-001  0.5000050E+01  0.7818608E-02  0.2136455E+00
        -11   -1    0    0    0    0  0.00000000000E+00  0.00000000000E+00  0.50000499739E+01  0.50000500000E+01  0.51100000000E-03 0.  1.
         11   -1    0    0    0    0 -0.00000000000E+00 -0.00000000000E+00 -0.50000499739E+01  0.50000500000E+01  0.51100000000E-03 0. -1.
     100001    1    1    2    0    0 -0.18516522739E-01 -0.77541833246E-02  0.98495444884E-02  0.50000500000E+01  0.50000000000E+01 0.  1.
     100001    1    1    2    0    0  0.18516522739E-01  0.77541833246E-02 -0.98495444884E-02  0.50000500000E+01  0.50000000000E+01 0. -1.
</event>
<event>
 4    1  0.4897575E-001  0.5000050E+01  0.7818608E-02  0.2136455E+00
        -11   -1    0    0    0    0  0.00000000000E+00  0.00000000000E+00  0.50000499739E+01  0.50000500000E+01  0.51100000000E-03 0.  1.
         11   -1    0    0    0    0 -0.00000000000E+00 -0.00000000000E+00 -0.50000499739E+01  0.50000500000E+01  0.51100000000E-03 0. -1.
     100001    1    1    2    0    0 -0.17352600990E-01  0.14042136310E-01 -0.13069608758E-02  0.50000500000E+01  0.50000000000E+01 0.  0.
     100001    1    1    2    0    0  0.17352600990E-01 -0.14042136310E-01  0.13069608758E-02  0.50000500000E+01  0.50000000000E+01 0. -1.
</event>
<event>
 4    1  0.4897575E-001  0.5000050E+01  0.7818608E-02  0.2136455E+00
        -11   -1    0    0    0    0  0.00000000000E+00  0.00000000000E+00  0.50000499739E+01  0.50000500000E+01  0.51100000000E-03 0.  1.
         11   -1    0    0    0    0 -0.00000000000E+00 -0.00000000000E+00 -0.50000499739E+01  0.50000500000E+01  0.51100000000E-03 0. -1.
     100001    1    1    2    0    0  0.87109953985E-02  0.86031982153E-02 -0.18711120748E-01  0.50000500000E+01  0.50000000000E+01 0. -1.
     100001    1    1    2    0    0 -0.87109953985E-02 -0.86031982153E-02  0.18711120748E-01  0.50000500000E+01  0.50000000000E+01 0.  1.
</event>
<event>
 4    1  0.4897575E-001  0.5000050E+01  0.7818608E-02  0.2136455E+00
        -11   -1    0    0    0    0  0.00000000000E+00  0.00000000000E+00  0.50000499739E+01  0.50000500000E+01  0.51100000000E-03 0. -1.
         11   -1    0    0    0    0 -0.00000000000E+00 -0.00000000000E+00 -0.50000499739E+01  0.50000500000E+01  0.51100000000E-03 0.  1.
     100001    1    1    2    0    0  0.20910114681E-01  0.78837479575E-02 -0.78493450317E-03  0.50000500000E+01  0.50000000000E+01 0. -1.
     100001    1    1    2    0    0 -0.20910114681E-01 -0.78837479575E-02  0.78493450317E-03  0.50000500000E+01  0.50000000000E+01 0.  1.
</event>
<event>
 4    1  0.4897575E-001  0.5000050E+01  0.7818608E-02  0.2136455E+00
        -11   -1    0    0    0    0  0.00000000000E+00  0.00000000000E+00  0.50000499739E+01  0.50000500000E+01  0.51100000000E-03 0.  1.
         11   -1    0    0    0    0 -0.00000000000E+00 -0.00000000000E+00 -0.50000499739E+01  0.50000500000E+01  0.51100000000E-03 0. -1.
     100001    1    1    2    0    0  0.12803814584E-01 -0.17379276872E-01 -0.58331438788E-02  0.50000500000E+01  0.50000000000E+01 0.  0.
     100001    1    1    2    0    0 -0.12803814584E-01  0.17379276872E-01  0.58331438788E-02  0.50000500000E+01  0.50000000000E+01 0.  0.
</event>
<event>
 4    1  0.4897575E-001  0.5000050E+01  0.7818608E-02  0.2136455E+00
        -11   -1    0    0    0    0  0.00000000000E+00  0.00000000000E+00  0.50000499739E+01  0.50000500000E+01  0.51100000000E-03 0. -1.
         11   -1    0    0    0    0 -0.00000000000E+00 -0.00000000000E+00 -0.50000499739E+01  0.50000500000E+01  0.51100000000E-03 0.  1.
     100001    1    1    2    0    0  0.65445030516E-02 -0.21381182830E-01 -0.13038635467E-03  0.50000500000E+01  0.50000000000E+01 0. -1.
     100001    1    1    2    0    0 -0.65445030516E-02  0.21381182830E-01  0.13038635467E-03  0.50000500000E+01  0.50000000000E+01 0.  1.
</event>
<event>
 4    1  0.4897575E-001  0.5000050E+01  0.7818608E-02  0.2136455E+00
        -11   -1    0    0    0    0  0.00000000000E+00  0.00000000000E+00  0.50000499739E+01  0.50000500000E+01  0.51100000000E-03 0.  1.
         11   -1    0    0    0    0 -0.00000000000E+00 -0.00000000000E+00 -0.50000499739E+01  0.50000500000E+01  0.51100000000E-03 0. -1.
     100001    1    1    2    0    0  0.85277687232E-02  0.18481626295E-01  0.92579236386E-02  0.50000500000E+01  0.50000000000E+01 0.  0.
     100001    1    1    2    0    0 -0.85277687232E-02 -0.18481626295E-01 -0.92579236386E-02  0.50000500000E+01  0.50000000000E+01 0.  0.
</event>
<event>
 4    1  0.4897575E-001  0.5000050E+01  0.7818608E-02  0.2136455E+00
        -11   -1    0    0    0    0  0.00000000000E+00  0.00000000000E+00  0.50000499739E+01  0.50000500000E+01  0.51100000000E-03 0. -1.
         11   -1    0    0    0    0 -0.00000000000E+00 -0.00000000000E+00 -0.50000499739E+01  0.50000500000E+01  0.51100000000E-03 0.  1.
     100001    1    1    2    0    0  0.85914283231E-02  0.19558013184E-01 -0.66086291816E-02  0.50000500000E+01  0.50000000000E+01 0.  1.
     100001    1    1    2    0    0 -0.85914283231E-02 -0.19558013184E-01  0.66086291816E-02  0.50000500000E+01  0.50000000000E+01 0.  0.
</event>
<event>
 4    1  0.4897575E-001  0.5000050E+01  0.7818608E-02  0.2136455E+00
        -11   -1    0    0    0    0  0.00000000000E+00  0.00000000000E+00  0.50000499739E+01  0.50000500000E+01  0.51100000000E-03 0. -1.
         11   -1    0    0    0    0 -0.00000000000E+00 -0.00000000000E+00 -0.50000499739E+01  0.50000500000E+01  0.51100000000E-03 0.  1.
     100001    1    1    2    0    0 -0.29030934920E-02 -0.19961940186E-01 -0.96486005293E-02  0.50000500000E+01  0.50000000000E+01 0.  0.
     100001    1    1    2    0    0  0.29030934920E-02  0.19961940186E-01  0.96486005293E-02  0.50000500000E+01  0.50000000000E+01 0.  1.
</event>
<event>
 4    1  0.4897575E-001  0.5000050E+01  0.7818608E-02  0.2136455E+00
        -11   -1    0    0    0    0  0.00000000000E+00  0.00000000000E+00  0.50000499739E+01  0.50000500000E+01  0.51100000000E-03 0. -1.
         11   -1    0    0    0    0 -0.00000000000E+00 -0.00000000000E+00 -0.50000499739E+01  0.50000500000E+01  0.51100000000E-03 0.  1.
     100001    1    1    2    0    0  0.43551512528E-02 -0.20231462424E-01  0.84689483261E-02  0.50000500000E+01  0.50000000000E+01 0. -1.
     100001    1    1    2    0    0 -0.43551512528E-02  0.20231462424E-01 -0.84689483261E-02  0.50000500000E+01  0.50000000000E+01 0.  1.
</event>
<event>
 4    1  0.4897575E-001  0.5000050E+01  0.7818608E-02  0.2136455E+00
        -11   -1    0    0    0    0  0.00000000000E+00  0.00000000000E+00  0.50000499739E+01  0.50000500000E+01  0.51100000000E-03 0.  1.
         11   -1    0    0    0    0 -0.00000000000E+00 -0.00000000000E+00 -0.50000499739E+01  0.50000500000E+01  0.51100000000E-03 0. -1.
     100001    1    1    2    0    0 -0.14375580074E-01 -0.10871688226E-01  0.13234484979E-01  0.50000500000E+01  0.50000000000E+01 0.  0.
     100001    1    1    2    0    0  0.14375580074E-01  0.10871688226E-01 -0.13234484979E-01  0.50000500000E+01  0.50000000000E+01 0. -1.
</event>
<event>
 4    1  0.4897575E-001  0.5000050E+01  0.7818608E-02  0.2136455E+00
        -11   -1    0    0    0    0  0.00000000000E+00  0.00000000000E+00  0.50000499739E+01  0.50000500000E+01  0.51100000000E-03 0.  1.
         11   -1    0    0    0    0 -0.00000000000E+00 -0.00000000000E+00 -0.50000499739E+01  0.50000500000E+01  0.51100000000E-03 0. -1.
     100001    1    1    2    0    0 -0.71957351038E-04  0.19101083180E-01 -0.11625228749E-01  0.50000500000E+01  0.50000000000E+01 0. -1.
     100001    1    1    2    0    0  0.71957351038E-04 -0.19101083180E-01  0.11625228749E-01  0.50000500000E+01  0.50000000000E+01 0.  1.
</event>
<event>
 4    1  0.4897575E-001  0.5000050E+01  0.7818608E-02  0.2136455E+00
        -11   -1    0    0    0    0  0.00000000000E+00  0.00000000000E+00  0.50000499739E+01  0.50000500000E+01  0.51100000000E-03 0.  1.
         11   -1    0    0    0    0 -0.00000000000E+00 -0.00000000000E+00 -0.50000499739E+01  0.50000500000E+01  0.51100000000E-03 0. -1.
     100001    1    1    2    0    0  0.10619669696E-01 -0.19677603098E-01 -0.13058279434E-03  0.50000500000E+01  0.50000000000E+01 0.  0.
     100001    1    1    2    0    0 -0.10619669696E-01  0.19677603098E-01  0.13058279434E-03  0.50000500000E+01  0.50000000000E+01 0. -1.
</event>
<event>
 4    1  0.4897575E-001  0.5000050E+01  0.7818608E-02  0.2136455E+00
        -11   -1    0    0    0    0  0.00000000000E+00  0.00000000000E+00  0.50000499739E+01  0.50000500000E+01  0.51100000000E-03 0. -1.
         11   -1    0    0    0    0 -0.00000000000E+00 -0.00000000000E+00 -0.50000499739E+01  0.50000500000E+01  0.51100000000E-03 0.  1.
     100001    1    1    2    0    0  0.11129584421E-01  0.86933455860E-02  0.17336683453E-01  0.50000500000E+01  0.50000000000E+01 0. -1.
     100001    1    1    2    0    0 -0.11129584421E-01 -0.86933455860E-02 -0.17336683453E-01  0.50000500000E+01  0.50000000000E+01 0.  1.
</event>
<event>
 4    1  0.4897575E-001  0.5000050E+01  0.7818608E-02  0.2136455E+00
        -11   -1    0    0    0    0  0.00000000000E+00  0.00000000000E+00  0.50000499739E+01  0.50000500000E+01  0.51100000000E-03 0. -1.
         11   -1    0    0    0    0 -0.00000000000E+00 -0.00000000000E+00 -0.50000499739E+01  0.50000500000E+01  0.51100000000E-03 0.  1.
     100001    1    1    2    0    0 -0.17520811076E-01 -0.10877828170E-01 -0.86427156345E-02  0.50000500000E+01  0.50000000000E+01 0.  0.
     100001    1    1    2    0    0  0.17520811076E-01  0.10877828170E-01  0.86427156345E-02  0.50000500000E+01  0.50000000000E+01 0.  1.
</event>
<event>
 4    1  0.4897575E-001  0.5000050E+01  0.7818608E-02  0.2136455E+00
        -11   -1    0    0    0    0  0.00000000000E+00  0.00000000000E+00  0.50000499739E+01  0.50000500000E+01  0.51100000000E-03 0.  1.
         11   -1    0    0    0    0 -0.00000000000E+00 -0.00000000000E+00 -0.50000499739E+01  0.50000500000E+01  0.51100000000E-03 0. -1.
     100001    1    1    2    0    0 -0.29247183019E-02  0.12853995306E-01 -0.18061653511E-01  0.50000500000E+01  0.50000000000E+01 0. -1.
     100001    1    1    2    0    0  0.29247183019E-02 -0.12853995306E-01  0.18061653511E-01  0.50000500000E+01  0.50000000000E+01 0. -1.
</event>
<event>
 4    1  0.4897575E-001  0.5000050E+01  0.7818608E-02  0.2136455E+00
        -11   -1    0    0    0    0  0.00000000000E+00  0.00000000000E+00  0.50000499739E+01  0.50000500000E+01  0.51100000000E-03 0. -1.
         11   -1    0    0    0    0 -0.00000000000E+00 -0.00000000000E+00 -0.50000499739E+01  0.50000500000E+01  0.51100000000E-03 0.  1.
     100001    1    1    2    0    0 -0.67488069525E-02 -0.20261202005E-01 -0.66287101345E-02  0.50000500000E+01  0.50000000000E+01 0.  0.
     100001    1    1    2    0    0  0.67488069525E-02  0.20261202005E-01  0.66287101345E-02  0.50000500000E+01  0.50000000000E+01 0.  0.
</event>
<event>
 4    1  0.4897575E-001  0.5000050E+01  0.7818608E-02  0.2136455E+00
        -11   -1    0    0    0    0  0.00000000000E+00  0.00000000000E+00  0.50000499739E+01  0.50000500000E+01  0.51100000000E-03 0. -1.
         11   -1    0    0    0    0 -0.00000000000E+00 -0.00000000000E+00 -0.50000499739E+01  0.50000500000E+01  0.51100000000E-03 0.  1.
     100001    1    1    2    0    0 -0.64762051709E-02  0.21076541094E-01 -0.37203067233E-02  0.50000500000E+01  0.50000000000E+01 0. -1.
     100001    1    1    2    0    0  0.64762051709E-02 -0.21076541094E-01  0.37203067233E-02  0.50000500000E+01  0.50000000000E+01 0.  0.
</event>
<event>
 4    1  0.4897575E-001  0.5000050E+01  0.7818608E-02  0.2136455E+00
        -11   -1    0    0    0    0  0.00000000000E+00  0.00000000000E+00  0.50000499739E+01  0.50000500000E+01  0.51100000000E-03 0. -1.
         11   -1    0    0    0    0 -0.00000000000E+00 -0.00000000000E+00 -0.50000499739E+01  0.50000500000E+01  0.51100000000E-03 0.  1.
     100001    1    1    2    0    0 -0.17633106713E-01  0.98518438512E-02  0.95925606785E-02  0.50000500000E+01  0.50000000000E+01 0.  0.
     100001    1    1    2    0    0  0.17633106713E-01 -0.98518438512E-02 -0.95925606785E-02  0.50000500000E+01  0.50000000000E+01 0.  0.
</event>
<event>
 4    1  0.4897575E-001  0.5000050E+01  0.7818608E-02  0.2136455E+00
        -11   -1    0    0    0    0  0.00000000000E+00  0.00000000000E+00  0.50000499739E+01  0.50000500000E+01  0.51100000000E-03 0. -1.
         11   -1    0    0    0    0 -0.00000000000E+00 -0.00000000000E+00 -0.50000499739E+01  0.50000500000E+01  0.51100000000E-03 0.  1.
     100001    1    1    2    0    0  0.93597886731E-02 -0.13726055282E-01 -0.14966371050E-01  0.50000500000E+01  0.50000000000E+01 0.  1.
     100001    1    1    2    0    0 -0.93597886731E-02  0.13726055282E-01  0.14966371050E-01  0.50000500000E+01  0.50000000000E+01 0. -1.
</event>
<event>
 4    1  0.4897575E-001  0.5000050E+01  0.7818608E-02  0.2136455E+00
        -11   -1    0    0    0    0  0.00000000000E+00  0.00000000000E+00  0.50000499739E+01  0.50000500000E+01  0.51100000000E-03 0.  1.
         11   -1    0    0    0    0 -0.00000000000E+00 -0.00000000000E+00 -0.50000499739E+01  0.50000500000E+01  0.51100000000E-03 0. -1.
     100001    1    1    2    0    0  0.64486357851E-02  0.12760097031E-01  0.17192949725E-01  0.50000500000E+01  0.50000000000E+01 0.  1.
     100001    1    1    2    0    0 -0.64486357851E-02 -0.12760097031E-01 -0.17192949725E-01  0.50000500000E+01  0.50000000000E+01 0. -1.
</event>
<event>
 4    1  0.4897575E-001  0.5000050E+01  0.7818608E-02  0.2136455E+00
        -11   -1    0    0    0    0  0.00000000000E+00  0.00000000000E+00  0.50000499739E+01  0.50000500000E+01  0.51100000000E-03 0. -1.
         11   -1    0    0    0    0 -0.00000000000E+00 -0.00000000000E+00 -0.50000499739E+01  0.50000500000E+01  0.51100000000E-03 0.  1.
     100001    1    1    2    0    0 -0.14319101861E-01 -0.15364040119E-01  0.76754213640E-02  0.50000500000E+01  0.50000000000E+01 0.  1.
     100001    1    1    2    0    0  0.14319101861E-01  0.15364040119E-01 -0.76754213640E-02  0.50000500000E+01  0.50000000000E+01 0.  0.
</event>
<event>
 4    1  0.4897575E-001  0.5000050E+01  0.7818608E-02  0.2136455E+00
        -11   -1    0    0    0    0  0.00000000000E+00  0.00000000000E+00  0.50000499739E+01  0.50000500000E+01  0.51100000000E-03 0.  1.
         11   -1    0    0    0    0 -0.00000000000E+00 -0.00000000000E+00 -0.50000499739E+01  0.50000500000E+01  0.51100000000E-03 0. -1.
     100001    1    1    2    0    0  0.75451477713E-02 -0.11868528714E-01 -0.17384224782E-01  0.50000500000E+01  0.50000000000E+01 0. -1.
     100001    1    1    2    0    0 -0.75451477713E-02  0.11868528714E-01  0.17384224782E-01  0.50000500000E+01  0.50000000000E+01 0.  1.
</event>
<event>
 4    1  0.4897575E-001  0.5000050E+01  0.7818608E-02  0.2136455E+00
        -11   -1    0    0    0    0  0.00000000000E+00  0.00000000000E+00  0.50000499739E+01  0.50000500000E+01  0.51100000000E-03 0. -1.
         11   -1    0    0    0    0 -0.00000000000E+00 -0.00000000000E+00 -0.50000499739E+01  0.50000500000E+01  0.51100000000E-03 0.  1.
     100001    1    1    2    0    0  0.14583296088E-01 -0.16347419483E-01  0.44823934957E-02  0.50000500000E+01  0.50000000000E+01 0.  0.
     100001    1    1    2    0    0 -0.14583296088E-01  0.16347419483E-01 -0.44823934957E-02  0.50000500000E+01  0.50000000000E+01 0. -1.
</event>
<event>
 4    1  0.4897575E-001  0.5000050E+01  0.7818608E-02  0.2136455E+00
        -11   -1    0    0    0    0  0.00000000000E+00  0.00000000000E+00  0.50000499739E+01  0.50000500000E+01  0.51100000000E-03 0.  1.
         11   -1    0    0    0    0 -0.00000000000E+00 -0.00000000000E+00 -0.50000499739E+01  0.50000500000E+01  0.51100000000E-03 0. -1.
     100001    1    1    2    0    0 -0.20801593540E-01  0.94273915941E-03 -0.81490765779E-02  0.50000500000E+01  0.50000000000E+01 0.  0.
     100001    1    1    2    0    0  0.20801593540E-01 -0.94273915941E-03  0.81490765779E-02  0.50000500000E+01  0.50000000000E+01 0.  0.
</event>
<event>
 4    1  0.4897575E-001  0.5000050E+01  0.7818608E-02  0.2136455E+00
        -11   -1    0    0    0    0  0.00000000000E+00  0.00000000000E+00  0.50000499739E+01  0.50000500000E+01  0.51100000000E-03 0.  1.
         11   -1    0    0    0    0 -0.00000000000E+00 -0.00000000000E+00 -0.50000499739E+01  0.50000500000E+01  0.51100000000E-03 0. -1.
     100001    1    1    2    0    0 -0.42091622773E-02  0.20954426977E-01  0.65724761694E-02  0.50000500000E+01  0.50000000000E+01 0.  1.
     100001    1    1    2    0    0  0.42091622773E-02 -0.20954426977E-01 -0.65724761694E-02  0.50000500000E+01  0.50000000000E+01 0.  0.
</event>
<event>
 4    1  0.4897575E-001  0.5000050E+01  0.7818608E-02  0.2136455E+00
        -11   -1    0    0    0    0  0.00000000000E+00  0.00000000000E+00  0.50000499739E+01  0.50000500000E+01  0.51100000000E-03 0. -1.
         11   -1    0    0    0    0 -0.00000000000E+00 -0.00000000000E+00 -0.50000499739E+01  0.50000500000E+01  0.51100000000E-03 0.  1.
     100001    1    1    2    0    0 -0.14353042359E-01 -0.63726025569E-02 -0.15917996472E-01  0.50000500000E+01  0.50000000000E+01 0.  1.
     100001    1    1    2    0    0  0.14353042359E-01  0.63726025569E-02  0.15917996472E-01  0.50000500000E+01  0.50000000000E+01 0. -1.
</event>
<event>
 4    1  0.4897575E-001  0.5000050E+01  0.7818608E-02  0.2136455E+00
        -11   -1    0    0    0    0  0.00000000000E+00  0.00000000000E+00  0.50000499739E+01  0.50000500000E+01  0.51100000000E-03 0.  1.
         11   -1    0    0    0    0 -0.00000000000E+00 -0.00000000000E+00 -0.50000499739E+01  0.50000500000E+01  0.51100000000E-03 0. -1.
     100001    1    1    2    0    0  0.20400317058E-01 -0.25137206662E-02  0.88040202385E-02  0.50000500000E+01  0.50000000000E+01 0.  1.
     100001    1    1    2    0    0 -0.20400317058E-01  0.25137206662E-02 -0.88040202385E-02  0.50000500000E+01  0.50000000000E+01 0. -1.
</event>
<event>
 4    1  0.4897575E-001  0.5000050E+01  0.7818608E-02  0.2136455E+00
        -11   -1    0    0    0    0  0.00000000000E+00  0.00000000000E+00  0.50000499739E+01  0.50000500000E+01  0.51100000000E-03 0.  1.
         11   -1    0    0    0    0 -0.00000000000E+00 -0.00000000000E+00 -0.50000499739E+01  0.50000500000E+01  0.51100000000E-03 0. -1.
     100001    1    1    2    0    0  0.18446566430E-01  0.12442573587E-01  0.22156374878E-02  0.50000500000E+01  0.50000000000E+01 0.  1.
     100001    1    1    2    0    0 -0.18446566430E-01 -0.12442573587E-01 -0.22156374878E-02  0.50000500000E+01  0.50000000000E+01 0. -1.
</event>
<event>
 4    1  0.4897575E-001  0.5000050E+01  0.7818608E-02  0.2136455E+00
        -11   -1    0    0    0    0  0.00000000000E+00  0.00000000000E+00  0.50000499739E+01  0.50000500000E+01  0.51100000000E-03 0.  1.
         11   -1    0    0    0    0 -0.00000000000E+00 -0.00000000000E+00 -0.50000499739E+01  0.50000500000E+01  0.51100000000E-03 0. -1.
     100001    1    1    2    0    0 -0.15978843519E-02 -0.88060401237E-02 -0.20491532957E-01  0.50000500000E+01  0.50000000000E+01 0.  0.
     100001    1    1    2    0    0  0.15978843519E-02  0.88060401237E-02  0.20491532957E-01  0.50000500000E+01  0.50000000000E+01 0.  1.
</event>
<event>
 4    1  0.4897575E-001  0.5000050E+01  0.7818608E-02  0.2136455E+00
        -11   -1    0    0    0    0  0.00000000000E+00  0.00000000000E+00  0.50000499739E+01  0.50000500000E+01  0.51100000000E-03 0.  1.
         11   -1    0    0    0    0 -0.00000000000E+00 -0.00000000000E+00 -0.50000499739E+01  0.50000500000E+01  0.51100000000E-03 0. -1.
     100001    1    1    2    0    0 -0.13725632064E-01 -0.13906141409E-01 -0.10873304721E-01  0.50000500000E+01  0.50000000000E+01 0. -1.
     100001    1    1    2    0    0  0.13725632064E-01  0.13906141409E-01  0.10873304721E-01  0.50000500000E+01  0.50000000000E+01 0. -1.
</event>
<event>
 4    1  0.4897575E-001  0.5000050E+01  0.7818608E-02  0.2136455E+00
        -11   -1    0    0    0    0  0.00000000000E+00  0.00000000000E+00  0.50000499739E+01  0.50000500000E+01  0.51100000000E-03 0.  1.
         11   -1    0    0    0    0 -0.00000000000E+00 -0.00000000000E+00 -0.50000499739E+01  0.50000500000E+01  0.51100000000E-03 0. -1.
     100001    1    1    2    0    0  0.18606827593E-01  0.65019730568E-02  0.10559962751E-01  0.50000500000E+01  0.50000000000E+01 0.  1.
     100001    1    1    2    0    0 -0.18606827593E-01 -0.65019730568E-02 -0.10559962751E-01  0.50000500000E+01  0.50000000000E+01 0. -1.
</event>
<event>
 4    1  0.4897575E-001  0.5000050E+01  0.7818608E-02  0.2136455E+00
        -11   -1    0    0    0    0  0.00000000000E+00  0.00000000000E+00  0.50000499739E+01  0.50000500000E+01  0.51100000000E-03 0.  1.
         11   -1    0    0    0    0 -0.00000000000E+00 -0.00000000000E+00 -0.50000499739E+01  0.50000500000E+01  0.51100000000E-03 0. -1.
     100001    1    1    2    0    0  0.84771348259E-03 -0.72749492685E-02  0.21127209825E-01  0.50000500000E+01  0.50000000000E+01 0.  0.
     100001    1    1    2    0    0 -0.84771348259E-03  0.72749492685E-02 -0.21127209825E-01  0.50000500000E+01  0.50000000000E+01 0. -1.
</event>
<event>
 4    1  0.4897575E-001  0.5000050E+01  0.7818608E-02  0.2136455E+00
        -11   -1    0    0    0    0  0.00000000000E+00  0.00000000000E+00  0.50000499739E+01  0.50000500000E+01  0.51100000000E-03 0.  1.
         11   -1    0    0    0    0 -0.00000000000E+00 -0.00000000000E+00 -0.50000499739E+01  0.50000500000E+01  0.51100000000E-03 0. -1.
     100001    1    1    2    0    0 -0.86124980585E-02  0.67648308904E-02  0.19495241476E-01  0.50000500000E+01  0.50000000000E+01 0.  0.
     100001    1    1    2    0    0  0.86124980585E-02 -0.67648308904E-02 -0.19495241476E-01  0.50000500000E+01  0.50000000000E+01 0. -1.
</event>
<event>
 4    1  0.4897575E-001  0.5000050E+01  0.7818608E-02  0.2136455E+00
        -11   -1    0    0    0    0  0.00000000000E+00  0.00000000000E+00  0.50000499739E+01  0.50000500000E+01  0.51100000000E-03 0. -1.
         11   -1    0    0    0    0 -0.00000000000E+00 -0.00000000000E+00 -0.50000499739E+01  0.50000500000E+01  0.51100000000E-03 0.  1.
     100001    1    1    2    0    0  0.19451552749E-01  0.91203633377E-02 -0.62014972586E-02  0.50000500000E+01  0.50000000000E+01 0.  0.
     100001    1    1    2    0    0 -0.19451552749E-01 -0.91203633377E-02  0.62014972586E-02  0.50000500000E+01  0.50000000000E+01 0.  1.
</event>
<event>
 4    1  0.4897575E-001  0.5000050E+01  0.7818608E-02  0.2136455E+00
        -11   -1    0    0    0    0  0.00000000000E+00  0.00000000000E+00  0.50000499739E+01  0.50000500000E+01  0.51100000000E-03 0. -1.
         11   -1    0    0    0    0 -0.00000000000E+00 -0.00000000000E+00 -0.50000499739E+01  0.50000500000E+01  0.51100000000E-03 0.  1.
     100001    1    1    2    0    0 -0.15912634210E-01 -0.14820662061E-01  0.52094672067E-02  0.50000500000E+01  0.50000000000E+01 0.  0.
     100001    1    1    2    0    0  0.15912634210E-01  0.14820662061E-01 -0.52094672067E-02  0.50000500000E+01  0.50000000000E+01 0. -1.
</event>
<event>
 4    1  0.4897575E-001  0.5000050E+01  0.7818608E-02  0.2136455E+00
        -11   -1    0    0    0    0  0.00000000000E+00  0.00000000000E+00  0.50000499739E+01  0.50000500000E+01  0.51100000000E-03 0. -1.
         11   -1    0    0    0    0 -0.00000000000E+00 -0.00000000000E+00 -0.50000499739E+01  0.50000500000E+01  0.51100000000E-03 0.  1.
     100001    1    1    2    0    0  0.94658080422E-03 -0.22297983896E-01  0.13807240714E-02  0.50000500000E+01  0.50000000000E+01 0.  1.
     100001    1    1    2    0    0 -0.94658080422E-03  0.22297983896E-01 -0.13807240714E-02  0.50000500000E+01  0.50000000000E+01 0. -1.
</event>
<event>
 4    1  0.4897575E-001  0.5000050E+01  0.7818608E-02  0.2136455E+00
        -11   -1    0    0    0    0  0.00000000000E+00  0.00000000000E+00  0.50000499739E+01  0.50000500000E+01  0.51100000000E-03 0.  1.
         11   -1    0    0    0    0 -0.00000000000E+00 -0.00000000000E+00 -0.50000499739E+01  0.50000500000E+01  0.51100000000E-03 0. -1.
     100001    1    1    2    0    0  0.15651025401E-02  0.19801963560E-01  0.10268164063E-01  0.50000500000E+01  0.50000000000E+01 0. -1.
     100001    1    1    2    0    0 -0.15651025401E-02 -0.19801963560E-01 -0.10268164063E-01  0.50000500000E+01  0.50000000000E+01 0.  1.
</event>
<event>
 4    1  0.4897575E-001  0.5000050E+01  0.7818608E-02  0.2136455E+00
        -11   -1    0    0    0    0  0.00000000000E+00  0.00000000000E+00  0.50000499739E+01  0.50000500000E+01  0.51100000000E-03 0. -1.
         11   -1    0    0    0    0 -0.00000000000E+00 -0.00000000000E+00 -0.50000499739E+01  0.50000500000E+01  0.51100000000E-03 0.  1.
     100001    1    1    2    0    0  0.64825265163E-02 -0.11394666745E-01  0.18114660354E-01  0.50000500000E+01  0.50000000000E+01 0.  0.
     100001    1    1    2    0    0 -0.64825265163E-02  0.11394666745E-01 -0.18114660354E-01  0.50000500000E+01  0.50000000000E+01 0.  0.
</event>
<event>
 4    1  0.4897575E-001  0.5000050E+01  0.7818608E-02  0.2136455E+00
        -11   -1    0    0    0    0  0.00000000000E+00  0.00000000000E+00  0.50000499739E+01  0.50000500000E+01  0.51100000000E-03 0. -1.
         11   -1    0    0    0    0 -0.00000000000E+00 -0.00000000000E+00 -0.50000499739E+01  0.50000500000E+01  0.51100000000E-03 0.  1.
     100001    1    1    2    0    0  0.99396962485E-02 -0.50063358979E-02 -0.19394368754E-01  0.50000500000E+01  0.50000000000E+01 0.  1.
     100001    1    1    2    0    0 -0.99396962485E-02  0.50063358979E-02  0.19394368754E-01  0.50000500000E+01  0.50000000000E+01 0. -1.
</event>
<event>
 4    1  0.4897575E-001  0.5000050E+01  0.7818608E-02  0.2136455E+00
        -11   -1    0    0    0    0  0.00000000000E+00  0.00000000000E+00  0.50000499739E+01  0.50000500000E+01  0.51100000000E-03 0. -1.
         11   -1    0    0    0    0 -0.00000000000E+00 -0.00000000000E+00 -0.50000499739E+01  0.50000500000E+01  0.51100000000E-03 0.  1.
     100001    1    1    2    0    0  0.14441622864E-01  0.52196007607E-02 -0.16254162450E-01  0.50000500000E+01  0.50000000000E+01 0.  1.
     100001    1    1    2    0    0 -0.14441622864E-01 -0.52196007607E-02  0.16254162450E-01  0.50000500000E+01  0.50000000000E+01 0. -1.
</event>
<event>
 4    1  0.4897575E-001  0.5000050E+01  0.7818608E-02  0.2136455E+00
        -11   -1    0    0    0    0  0.00000000000E+00  0.00000000000E+00  0.50000499739E+01  0.50000500000E+01  0.51100000000E-03 0. -1.
         11   -1    0    0    0    0 -0.00000000000E+00 -0.00000000000E+00 -0.50000499739E+01  0.50000500000E+01  0.51100000000E-03 0.  1.
     100001    1    1    2    0    0 -0.80950293787E-03 -0.93104546770E-02 -0.20314099505E-01  0.50000500000E+01  0.50000000000E+01 0.  0.
     100001    1    1    2    0    0  0.80950293787E-03  0.93104546770E-02  0.20314099505E-01  0.50000500000E+01  0.50000000000E+01 0. -1.
</event>
<event>
 4    1  0.4897575E-001  0.5000050E+01  0.7818608E-02  0.2136455E+00
        -11   -1    0    0    0    0  0.00000000000E+00  0.00000000000E+00  0.50000499739E+01  0.50000500000E+01  0.51100000000E-03 0.  1.
         11   -1    0    0    0    0 -0.00000000000E+00 -0.00000000000E+00 -0.50000499739E+01  0.50000500000E+01  0.51100000000E-03 0. -1.
     100001    1    1    2    0    0  0.48887440678E-02 -0.13571840378E-01  0.17085310363E-01  0.50000500000E+01  0.50000000000E+01 0.  0.
     100001    1    1    2    0    0 -0.48887440678E-02  0.13571840378E-01 -0.17085310363E-01  0.50000500000E+01  0.50000000000E+01 0.  0.
</event>
<event>
 4    1  0.4897575E-001  0.5000050E+01  0.7818608E-02  0.2136455E+00
        -11   -1    0    0    0    0  0.00000000000E+00  0.00000000000E+00  0.50000499739E+01  0.50000500000E+01  0.51100000000E-03 0. -1.
         11   -1    0    0    0    0 -0.00000000000E+00 -0.00000000000E+00 -0.50000499739E+01  0.50000500000E+01  0.51100000000E-03 0.  1.
     100001    1    1    2    0    0  0.25020728866E-02  0.10067326228E-01 -0.19808863518E-01  0.50000500000E+01  0.50000000000E+01 0. -1.
     100001    1    1    2    0    0 -0.25020728866E-02 -0.10067326228E-01  0.19808863518E-01  0.50000500000E+01  0.50000000000E+01 0. -1.
</event>
<event>
 4    1  0.4897575E-001  0.5000050E+01  0.7818608E-02  0.2136455E+00
        -11   -1    0    0    0    0  0.00000000000E+00  0.00000000000E+00  0.50000499739E+01  0.50000500000E+01  0.51100000000E-03 0. -1.
         11   -1    0    0    0    0 -0.00000000000E+00 -0.00000000000E+00 -0.50000499739E+01  0.50000500000E+01  0.51100000000E-03 0.  1.
     100001    1    1    2    0    0 -0.42378652357E-02 -0.21603351019E-01  0.39164043441E-02  0.50000500000E+01  0.50000000000E+01 0.  1.
     100001    1    1    2    0    0  0.42378652357E-02  0.21603351019E-01 -0.39164043441E-02  0.50000500000E+01  0.50000000000E+01 0. -1.
</event>
<event>
 4    1  0.4897575E-001  0.5000050E+01  0.7818608E-02  0.2136455E+00
        -11   -1    0    0    0    0  0.00000000000E+00  0.00000000000E+00  0.50000499739E+01  0.50000500000E+01  0.51100000000E-03 0.  1.
         11   -1    0    0    0    0 -0.00000000000E+00 -0.00000000000E+00 -0.50000499739E+01  0.50000500000E+01  0.51100000000E-03 0. -1.
     100001    1    1    2    0    0  0.65823283734E-02 -0.17109234706E-01  0.12804278229E-01  0.50000500000E+01  0.50000000000E+01 0.  0.
     100001    1    1    2    0    0 -0.65823283734E-02  0.17109234706E-01 -0.12804278229E-01  0.50000500000E+01  0.50000000000E+01 0.  1.
</event>
<event>
 4    1  0.4897575E-001  0.5000050E+01  0.7818608E-02  0.2136455E+00
        -11   -1    0    0    0    0  0.00000000000E+00  0.00000000000E+00  0.50000499739E+01  0.50000500000E+01  0.51100000000E-03 0. -1.
         11   -1    0    0    0    0 -0.00000000000E+00 -0.00000000000E+00 -0.50000499739E+01  0.50000500000E+01  0.51100000000E-03 0.  1.
     100001    1    1    2    0    0  0.16967328554E-01  0.11761066701E-01 -0.85900856687E-02  0.50000500000E+01  0.50000000000E+01 0.  1.
     100001    1    1    2    0    0 -0.16967328554E-01 -0.11761066701E-01  0.85900856687E-02  0.50000500000E+01  0.50000000000E+01 0. -1.
</event>
<event>
 4    1  0.4897575E-001  0.5000050E+01  0.7818608E-02  0.2136455E+00
        -11   -1    0    0    0    0  0.00000000000E+00  0.00000000000E+00  0.50000499739E+01  0.50000500000E+01  0.51100000000E-03 0.  1.
         11   -1    0    0    0    0 -0.00000000000E+00 -0.00000000000E+00 -0.50000499739E+01  0.50000500000E+01  0.51100000000E-03 0. -1.
     100001    1    1    2    0    0 -0.10653364612E-01 -0.67761548648E-02 -0.18455136079E-01  0.50000500000E+01  0.50000000000E+01 0. -1.
     100001    1    1    2    0    0  0.10653364612E-01  0.67761548648E-02  0.18455136079E-01  0.50000500000E+01  0.50000000000E+01 0.  1.
</event>
<event>
 4    1  0.4897575E-001  0.5000050E+01  0.7818608E-02  0.2136455E+00
        -11   -1    0    0    0    0  0.00000000000E+00  0.00000000000E+00  0.50000499739E+01  0.50000500000E+01  0.51100000000E-03 0.  1.
         11   -1    0    0    0    0 -0.00000000000E+00 -0.00000000000E+00 -0.50000499739E+01  0.50000500000E+01  0.51100000000E-03 0. -1.
     100001    1    1    2    0    0  0.18315247769E-01 -0.10949279808E-01  0.66833727153E-02  0.50000500000E+01  0.50000000000E+01 0.  0.
     100001    1    1    2    0    0 -0.18315247769E-01  0.10949279808E-01 -0.66833727153E-02  0.50000500000E+01  0.50000000000E+01 0.  1.
</event>
<event>
 4    1  0.4897575E-001  0.5000050E+01  0.7818608E-02  0.2136455E+00
        -11   -1    0    0    0    0  0.00000000000E+00  0.00000000000E+00  0.50000499739E+01  0.50000500000E+01  0.51100000000E-03 0.  1.
         11   -1    0    0    0    0 -0.00000000000E+00 -0.00000000000E+00 -0.50000499739E+01  0.50000500000E+01  0.51100000000E-03 0. -1.
     100001    1    1    2    0    0 -0.18244155181E-01  0.11526696650E-01  0.58556439493E-02  0.50000500000E+01  0.50000000000E+01 0.  0.
     100001    1    1    2    0    0  0.18244155181E-01 -0.11526696650E-01 -0.58556439493E-02  0.50000500000E+01  0.50000000000E+01 0.  0.
</event>
<event>
 4    1  0.4897575E-001  0.5000050E+01  0.7818608E-02  0.2136455E+00
        -11   -1    0    0    0    0  0.00000000000E+00  0.00000000000E+00  0.50000499739E+01  0.50000500000E+01  0.51100000000E-03 0.  1.
         11   -1    0    0    0    0 -0.00000000000E+00 -0.00000000000E+00 -0.50000499739E+01  0.50000500000E+01  0.51100000000E-03 0. -1.
     100001    1    1    2    0    0  0.16987808380E-01  0.72686889276E-02  0.12592975332E-01  0.50000500000E+01  0.50000000000E+01 0.  0.
     100001    1    1    2    0    0 -0.16987808380E-01 -0.72686889276E-02 -0.12592975332E-01  0.50000500000E+01  0.50000000000E+01 0.  0.
</event>
<event>
 4    1  0.4897575E-001  0.5000050E+01  0.7818608E-02  0.2136455E+00
        -11   -1    0    0    0    0  0.00000000000E+00  0.00000000000E+00  0.50000499739E+01  0.50000500000E+01  0.51100000000E-03 0. -1.
         11   -1    0    0    0    0 -0.00000000000E+00 -0.00000000000E+00 -0.50000499739E+01  0.50000500000E+01  0.51100000000E-03 0.  1.
     100001    1    1    2    0    0 -0.91830198312E-02  0.39829019891E-04 -0.20388061713E-01  0.50000500000E+01  0.50000000000E+01 0.  1.
     100001    1    1    2    0    0  0.91830198312E-02 -0.39829019891E-04  0.20388061713E-01  0.50000500000E+01  0.50000000000E+01 0.  0.
</event>
<event>
 4    1  0.4897575E-001  0.5000050E+01  0.7818608E-02  0.2136455E+00
        -11   -1    0    0    0    0  0.00000000000E+00  0.00000000000E+00  0.50000499739E+01  0.50000500000E+01  0.51100000000E-03 0.  1.
         11   -1    0    0    0    0 -0.00000000000E+00 -0.00000000000E+00 -0.50000499739E+01  0.50000500000E+01  0.51100000000E-03 0. -1.
     100001    1    1    2    0    0 -0.13401435662E-01  0.12669313737E-01  0.12644861076E-01  0.50000500000E+01  0.50000000000E+01 0.  1.
     100001    1    1    2    0    0  0.13401435662E-01 -0.12669313737E-01 -0.12644861076E-01  0.50000500000E+01  0.50000000000E+01 0. -1.
</event>
<event>
 4    1  0.4897575E-001  0.5000050E+01  0.7818608E-02  0.2136455E+00
        -11   -1    0    0    0    0  0.00000000000E+00  0.00000000000E+00  0.50000499739E+01  0.50000500000E+01  0.51100000000E-03 0.  1.
         11   -1    0    0    0    0 -0.00000000000E+00 -0.00000000000E+00 -0.50000499739E+01  0.50000500000E+01  0.51100000000E-03 0. -1.
     100001    1    1    2    0    0 -0.16860929543E-02 -0.61477237493E-02  0.21432803905E-01  0.50000500000E+01  0.50000000000E+01 0.  1.
     100001    1    1    2    0    0  0.16860929543E-02  0.61477237493E-02 -0.21432803905E-01  0.50000500000E+01  0.50000000000E+01 0.  0.
</event>
<event>
 4    1  0.4897575E-001  0.5000050E+01  0.7818608E-02  0.2136455E+00
        -11   -1    0    0    0    0  0.00000000000E+00  0.00000000000E+00  0.50000499739E+01  0.50000500000E+01  0.51100000000E-03 0. -1.
         11   -1    0    0    0    0 -0.00000000000E+00 -0.00000000000E+00 -0.50000499739E+01  0.50000500000E+01  0.51100000000E-03 0.  1.
     100001    1    1    2    0    0  0.11469018329E-01  0.17407050898E-01 -0.80906549567E-02  0.50000500000E+01  0.50000000000E+01 0.  0.
     100001    1    1    2    0    0 -0.11469018329E-01 -0.17407050898E-01  0.80906549567E-02  0.50000500000E+01  0.50000000000E+01 0.  1.
</event>
<event>
 4    1  0.4897575E-001  0.5000050E+01  0.7818608E-02  0.2136455E+00
        -11   -1    0    0    0    0  0.00000000000E+00  0.00000000000E+00  0.50000499739E+01  0.50000500000E+01  0.51100000000E-03 0. -1.
         11   -1    0    0    0    0 -0.00000000000E+00 -0.00000000000E+00 -0.50000499739E+01  0.50000500000E+01  0.51100000000E-03 0.  1.
     100001    1    1    2    0    0 -0.16300702111E-02 -0.90865380250E-02  0.20366153241E-01  0.50000500000E+01  0.50000000000E+01 0.  0.
     100001    1    1    2    0    0  0.16300702111E-02  0.90865380250E-02 -0.20366153241E-01  0.50000500000E+01  0.50000000000E+01 0.  1.
</event>
<event>
 4    1  0.4897575E-001  0.5000050E+01  0.7818608E-02  0.2136455E+00
        -11   -1    0    0    0    0  0.00000000000E+00  0.00000000000E+00  0.50000499739E+01  0.50000500000E+01  0.51100000000E-03 0.  1.
         11   -1    0    0    0    0 -0.00000000000E+00 -0.00000000000E+00 -0.50000499739E+01  0.50000500000E+01  0.51100000000E-03 0. -1.
     100001    1    1    2    0    0 -0.57640749601E-03 -0.12960133209E-01 -0.18212775780E-01  0.50000500000E+01  0.50000000000E+01 0. -1.
     100001    1    1    2    0    0  0.57640749601E-03  0.12960133209E-01  0.18212775780E-01  0.50000500000E+01  0.50000000000E+01 0.  1.
</event>
<event>
 4    1  0.4897575E-001  0.5000050E+01  0.7818608E-02  0.2136455E+00
        -11   -1    0    0    0    0  0.00000000000E+00  0.00000000000E+00  0.50000499739E+01  0.50000500000E+01  0.51100000000E-03 0. -1.
         11   -1    0    0    0    0 -0.00000000000E+00 -0.00000000000E+00 -0.50000499739E+01  0.50000500000E+01  0.51100000000E-03 0.  1.
     100001    1    1    2    0    0  0.16419134022E-01 -0.11574915439E-01 -0.98201767065E-02  0.50000500000E+01  0.50000000000E+01 0.  0.
     100001    1    1    2    0    0 -0.16419134022E-01  0.11574915439E-01  0.98201767065E-02  0.50000500000E+01  0.50000000000E+01 0.  1.
</event>
<event>
 4    1  0.4897575E-001  0.5000050E+01  0.7818608E-02  0.2136455E+00
        -11   -1    0    0    0    0  0.00000000000E+00  0.00000000000E+00  0.50000499739E+01  0.50000500000E+01  0.51100000000E-03 0. -1.
         11   -1    0    0    0    0 -0.00000000000E+00 -0.00000000000E+00 -0.50000499739E+01  0.50000500000E+01  0.51100000000E-03 0.  1.
     100001    1    1    2    0    0  0.21588679432E-01  0.22715580589E-02 -0.53639019724E-02  0.50000500000E+01  0.50000000000E+01 0.  0.
     100001    1    1    2    0    0 -0.21588679432E-01 -0.22715580589E-02  0.53639019724E-02  0.50000500000E+01  0.50000000000E+01 0. -1.
</event>
<event>
 4    1  0.4897575E-001  0.5000050E+01  0.7818608E-02  0.2136455E+00
        -11   -1    0    0    0    0  0.00000000000E+00  0.00000000000E+00  0.50000499739E+01  0.50000500000E+01  0.51100000000E-03 0. -1.
         11   -1    0    0    0    0 -0.00000000000E+00 -0.00000000000E+00 -0.50000499739E+01  0.50000500000E+01  0.51100000000E-03 0.  1.
     100001    1    1    2    0    0 -0.95271842789E-02 -0.16978901013E-01  0.10997826153E-01  0.50000500000E+01  0.50000000000E+01 0.  1.
     100001    1    1    2    0    0  0.95271842789E-02  0.16978901013E-01 -0.10997826153E-01  0.50000500000E+01  0.50000000000E+01 0.  0.
</event>
<event>
 4    1  0.4897575E-001  0.5000050E+01  0.7818608E-02  0.2136455E+00
        -11   -1    0    0    0    0  0.00000000000E+00  0.00000000000E+00  0.50000499739E+01  0.50000500000E+01  0.51100000000E-03 0.  1.
         11   -1    0    0    0    0 -0.00000000000E+00 -0.00000000000E+00 -0.50000499739E+01  0.50000500000E+01  0.51100000000E-03 0. -1.
     100001    1    1    2    0    0  0.20814972504E-01 -0.68106880175E-02 -0.45115350355E-02  0.50000500000E+01  0.50000000000E+01 0. -1.
     100001    1    1    2    0    0 -0.20814972504E-01  0.68106880175E-02  0.45115350355E-02  0.50000500000E+01  0.50000000000E+01 0.  0.
</event>
<event>
 4    1  0.4897575E-001  0.5000050E+01  0.7818608E-02  0.2136455E+00
        -11   -1    0    0    0    0  0.00000000000E+00  0.00000000000E+00  0.50000499739E+01  0.50000500000E+01  0.51100000000E-03 0.  1.
         11   -1    0    0    0    0 -0.00000000000E+00 -0.00000000000E+00 -0.50000499739E+01  0.50000500000E+01  0.51100000000E-03 0. -1.
     100001    1    1    2    0    0 -0.74542012072E-03 -0.12507444354E-01 -0.18520547631E-01  0.50000500000E+01  0.50000000000E+01 0. -1.
     100001    1    1    2    0    0  0.74542012072E-03  0.12507444354E-01  0.18520547631E-01  0.50000500000E+01  0.50000000000E+01 0.  1.
</event>
<event>
 4    1  0.4897575E-001  0.5000050E+01  0.7818608E-02  0.2136455E+00
        -11   -1    0    0    0    0  0.00000000000E+00  0.00000000000E+00  0.50000499739E+01  0.50000500000E+01  0.51100000000E-03 0. -1.
         11   -1    0    0    0    0 -0.00000000000E+00 -0.00000000000E+00 -0.50000499739E+01  0.50000500000E+01  0.51100000000E-03 0.  1.
     100001    1    1    2    0    0 -0.13712206667E-01  0.12503836714E-01  0.12475253735E-01  0.50000500000E+01  0.50000000000E+01 0. -1.
     100001    1    1    2    0    0  0.13712206667E-01 -0.12503836714E-01 -0.12475253735E-01  0.50000500000E+01  0.50000000000E+01 0.  1.
</event>
<event>
 4    1  0.4897575E-001  0.5000050E+01  0.7818608E-02  0.2136455E+00
        -11   -1    0    0    0    0  0.00000000000E+00  0.00000000000E+00  0.50000499739E+01  0.50000500000E+01  0.51100000000E-03 0. -1.
         11   -1    0    0    0    0 -0.00000000000E+00 -0.00000000000E+00 -0.50000499739E+01  0.50000500000E+01  0.51100000000E-03 0.  1.
     100001    1    1    2    0    0 -0.97683126103E-02 -0.59643846756E-02  0.19209598751E-01  0.50000500000E+01  0.50000000000E+01 0.  0.
     100001    1    1    2    0    0  0.97683126103E-02  0.59643846756E-02 -0.19209598751E-01  0.50000500000E+01  0.50000000000E+01 0.  0.
</event>
<event>
 4    1  0.4897575E-001  0.5000050E+01  0.7818608E-02  0.2136455E+00
        -11   -1    0    0    0    0  0.00000000000E+00  0.00000000000E+00  0.50000499739E+01  0.50000500000E+01  0.51100000000E-03 0.  1.
         11   -1    0    0    0    0 -0.00000000000E+00 -0.00000000000E+00 -0.50000499739E+01  0.50000500000E+01  0.51100000000E-03 0. -1.
     100001    1    1    2    0    0  0.48799447388E-02  0.89301522312E-02 -0.19910826715E-01  0.50000500000E+01  0.50000000000E+01 0.  0.
     100001    1    1    2    0    0 -0.48799447388E-02 -0.89301522312E-02  0.19910826715E-01  0.50000500000E+01  0.50000000000E+01 0.  1.
</event>
<event>
 4    1  0.4897575E-001  0.5000050E+01  0.7818608E-02  0.2136455E+00
        -11   -1    0    0    0    0  0.00000000000E+00  0.00000000000E+00  0.50000499739E+01  0.50000500000E+01  0.51100000000E-03 0.  1.
         11   -1    0    0    0    0 -0.00000000000E+00 -0.00000000000E+00 -0.50000499739E+01  0.50000500000E+01  0.51100000000E-03 0. -1.
     100001    1    1    2    0    0  0.24760917754E-03  0.20563859731E-01 -0.87788873248E-02  0.50000500000E+01  0.50000000000E+01 0. -1.
     100001    1    1    2    0    0 -0.24760917754E-03 -0.20563859731E-01  0.87788873248E-02  0.50000500000E+01  0.50000000000E+01 0.  1.
</event>
<event>
 4    1  0.4897575E-001  0.5000050E+01  0.7818608E-02  0.2136455E+00
        -11   -1    0    0    0    0  0.00000000000E+00  0.00000000000E+00  0.50000499739E+01  0.50000500000E+01  0.51100000000E-03 0.  1.
         11   -1    0    0    0    0 -0.00000000000E+00 -0.00000000000E+00 -0.50000499739E+01  0.50000500000E+01  0.51100000000E-03 0. -1.
     100001    1    1    2    0    0 -0.12981262619E-01 -0.16496964287E-01 -0.77032129741E-02  0.50000500000E+01  0.50000000000E+01 0.  1.
     100001    1    1    2    0    0  0.12981262619E-01  0.16496964287E-01  0.77032129741E-02  0.50000500000E+01  0.50000000000E+01 0.  1.
</event>
<event>
 4    1  0.4897575E-001  0.5000050E+01  0.7818608E-02  0.2136455E+00
        -11   -1    0    0    0    0  0.00000000000E+00  0.00000000000E+00  0.50000499739E+01  0.50000500000E+01  0.51100000000E-03 0. -1.
         11   -1    0    0    0    0 -0.00000000000E+00 -0.00000000000E+00 -0.50000499739E+01  0.50000500000E+01  0.51100000000E-03 0.  1.
     100001    1    1    2    0    0 -0.18461728517E-01  0.12470184436E-01 -0.19135256195E-02  0.50000500000E+01  0.50000000000E+01 0.  1.
     100001    1    1    2    0    0  0.18461728517E-01 -0.12470184436E-01  0.19135256195E-02  0.50000500000E+01  0.50000000000E+01 0. -1.
</event>
<event>
 4    1  0.4897575E-001  0.5000050E+01  0.7818608E-02  0.2136455E+00
        -11   -1    0    0    0    0  0.00000000000E+00  0.00000000000E+00  0.50000499739E+01  0.50000500000E+01  0.51100000000E-03 0. -1.
         11   -1    0    0    0    0 -0.00000000000E+00 -0.00000000000E+00 -0.50000499739E+01  0.50000500000E+01  0.51100000000E-03 0.  1.
     100001    1    1    2    0    0 -0.29330311829E-02 -0.20460755070E-01  0.85297907393E-02  0.50000500000E+01  0.50000000000E+01 0.  0.
     100001    1    1    2    0    0  0.29330311829E-02  0.20460755070E-01 -0.85297907393E-02  0.50000500000E+01  0.50000000000E+01 0.  0.
</event>
<event>
 4    1  0.4897575E-001  0.5000050E+01  0.7818608E-02  0.2136455E+00
        -11   -1    0    0    0    0  0.00000000000E+00  0.00000000000E+00  0.50000499739E+01  0.50000500000E+01  0.51100000000E-03 0. -1.
         11   -1    0    0    0    0 -0.00000000000E+00 -0.00000000000E+00 -0.50000499739E+01  0.50000500000E+01  0.51100000000E-03 0.  1.
     100001    1    1    2    0    0 -0.20975329081E-01  0.76557244502E-02 -0.11949699118E-02  0.50000500000E+01  0.50000000000E+01 0.  1.
     100001    1    1    2    0    0  0.20975329081E-01 -0.76557244502E-02  0.11949699118E-02  0.50000500000E+01  0.50000000000E+01 0.  0.
</event>
<event>
 4    1  0.4897575E-001  0.5000050E+01  0.7818608E-02  0.2136455E+00
        -11   -1    0    0    0    0  0.00000000000E+00  0.00000000000E+00  0.50000499739E+01  0.50000500000E+01  0.51100000000E-03 0. -1.
         11   -1    0    0    0    0 -0.00000000000E+00 -0.00000000000E+00 -0.50000499739E+01  0.50000500000E+01  0.51100000000E-03 0.  1.
     100001    1    1    2    0    0 -0.54816388730E-02  0.21019589602E-01  0.53038654037E-02  0.50000500000E+01  0.50000000000E+01 0. -1.
     100001    1    1    2    0    0  0.54816388730E-02 -0.21019589602E-01 -0.53038654037E-02  0.50000500000E+01  0.50000000000E+01 0.  1.
</event>
<event>
 4    1  0.4897575E-001  0.5000050E+01  0.7818608E-02  0.2136455E+00
        -11   -1    0    0    0    0  0.00000000000E+00  0.00000000000E+00  0.50000499739E+01  0.50000500000E+01  0.51100000000E-03 0. -1.
         11   -1    0    0    0    0 -0.00000000000E+00 -0.00000000000E+00 -0.50000499739E+01  0.50000500000E+01  0.51100000000E-03 0.  1.
     100001    1    1    2    0    0 -0.52688993731E-02 -0.12117549826E-02  0.21697300506E-01  0.50000500000E+01  0.50000000000E+01 0.  0.
     100001    1    1    2    0    0  0.52688993731E-02  0.12117549826E-02 -0.21697300506E-01  0.50000500000E+01  0.50000000000E+01 0.  1.
</event>
<event>
 4    1  0.4897575E-001  0.5000050E+01  0.7818608E-02  0.2136455E+00
        -11   -1    0    0    0    0  0.00000000000E+00  0.00000000000E+00  0.50000499739E+01  0.50000500000E+01  0.51100000000E-03 0. -1.
         11   -1    0    0    0    0 -0.00000000000E+00 -0.00000000000E+00 -0.50000499739E+01  0.50000500000E+01  0.51100000000E-03 0.  1.
     100001    1    1    2    0    0 -0.14726420018E-01  0.16826512825E-01 -0.59326168689E-04  0.50000500000E+01  0.50000000000E+01 0.  1.
     100001    1    1    2    0    0  0.14726420018E-01 -0.16826512825E-01  0.59326168689E-04  0.50000500000E+01  0.50000000000E+01 0. -1.
</event>
<event>
 4    1  0.4897575E-001  0.5000050E+01  0.7818608E-02  0.2136455E+00
        -11   -1    0    0    0    0  0.00000000000E+00  0.00000000000E+00  0.50000499739E+01  0.50000500000E+01  0.51100000000E-03 0. -1.
         11   -1    0    0    0    0 -0.00000000000E+00 -0.00000000000E+00 -0.50000499739E+01  0.50000500000E+01  0.51100000000E-03 0.  1.
     100001    1    1    2    0    0  0.14730070626E-02  0.95618763107E-02 -0.20159446213E-01  0.50000500000E+01  0.50000000000E+01 0.  1.
     100001    1    1    2    0    0 -0.14730070626E-02 -0.95618763107E-02  0.20159446213E-01  0.50000500000E+01  0.50000000000E+01 0.  0.
</event>
<event>
 4    1  0.4897575E-001  0.5000050E+01  0.7818608E-02  0.2136455E+00
        -11   -1    0    0    0    0  0.00000000000E+00  0.00000000000E+00  0.50000499739E+01  0.50000500000E+01  0.51100000000E-03 0.  1.
         11   -1    0    0    0    0 -0.00000000000E+00 -0.00000000000E+00 -0.50000499739E+01  0.50000500000E+01  0.51100000000E-03 0. -1.
     100001    1    1    2    0    0 -0.20806139719E-02  0.10442368747E-01  0.19662921463E-01  0.50000500000E+01  0.50000000000E+01 0.  1.
     100001    1    1    2    0    0  0.20806139719E-02 -0.10442368747E-01 -0.19662921463E-01  0.50000500000E+01  0.50000000000E+01 0.  0.
</event>
<event>
 4    1  0.4897575E-001  0.5000050E+01  0.7818608E-02  0.2136455E+00
        -11   -1    0    0    0    0  0.00000000000E+00  0.00000000000E+00  0.50000499739E+01  0.50000500000E+01  0.51100000000E-03 0. -1.
         11   -1    0    0    0    0 -0.00000000000E+00 -0.00000000000E+00 -0.50000499739E+01  0.50000500000E+01  0.51100000000E-03 0.  1.
     100001    1    1    2    0    0 -0.21505138888E-01 -0.15784834207E-02 -0.59194502690E-02  0.50000500000E+01  0.50000000000E+01 0.  1.
     100001    1    1    2    0    0  0.21505138888E-01  0.15784834207E-02  0.59194502690E-02  0.50000500000E+01  0.50000000000E+01 0. -1.
</event>
<event>
 4    1  0.4897575E-001  0.5000050E+01  0.7818608E-02  0.2136455E+00
        -11   -1    0    0    0    0  0.00000000000E+00  0.00000000000E+00  0.50000499739E+01  0.50000500000E+01  0.51100000000E-03 0. -1.
         11   -1    0    0    0    0 -0.00000000000E+00 -0.00000000000E+00 -0.50000499739E+01  0.50000500000E+01  0.51100000000E-03 0.  1.
     100001    1    1    2    0    0  0.49988876447E-03  0.17168661667E-01  0.14317460242E-01  0.50000500000E+01  0.50000000000E+01 0. -1.
     100001    1    1    2    0    0 -0.49988876447E-03 -0.17168661667E-01 -0.14317460242E-01  0.50000500000E+01  0.50000000000E+01 0.  1.
</event>
<event>
 4    1  0.4897575E-001  0.5000050E+01  0.7818608E-02  0.2136455E+00
        -11   -1    0    0    0    0  0.00000000000E+00  0.00000000000E+00  0.50000499739E+01  0.50000500000E+01  0.51100000000E-03 0. -1.
         11   -1    0    0    0    0 -0.00000000000E+00 -0.00000000000E+00 -0.50000499739E+01  0.50000500000E+01  0.51100000000E-03 0.  1.
     100001    1    1    2    0    0 -0.11739193660E-01  0.17856404575E-01 -0.65835133376E-02  0.50000500000E+01  0.50000000000E+01 0. -1.
     100001    1    1    2    0    0  0.11739193660E-01 -0.17856404575E-01  0.65835133376E-02  0.50000500000E+01  0.50000000000E+01 0.  0.
</event>
<event>
 4    1  0.4897575E-001  0.5000050E+01  0.7818608E-02  0.2136455E+00
        -11   -1    0    0    0    0  0.00000000000E+00  0.00000000000E+00  0.50000499739E+01  0.50000500000E+01  0.51100000000E-03 0. -1.
         11   -1    0    0    0    0 -0.00000000000E+00 -0.00000000000E+00 -0.50000499739E+01  0.50000500000E+01  0.51100000000E-03 0.  1.
     100001    1    1    2    0    0 -0.10629477518E-01 -0.17641593532E-01 -0.87057960785E-02  0.50000500000E+01  0.50000000000E+01 0. -1.
     100001    1    1    2    0    0  0.10629477518E-01  0.17641593532E-01  0.87057960785E-02  0.50000500000E+01  0.50000000000E+01 0.  0.
</event>
<event>
 4    1  0.4897575E-001  0.5000050E+01  0.7818608E-02  0.2136455E+00
        -11   -1    0    0    0    0  0.00000000000E+00  0.00000000000E+00  0.50000499739E+01  0.50000500000E+01  0.51100000000E-03 0. -1.
         11   -1    0    0    0    0 -0.00000000000E+00 -0.00000000000E+00 -0.50000499739E+01  0.50000500000E+01  0.51100000000E-03 0.  1.
     100001    1    1    2    0    0 -0.12547450480E-01 -0.41500486053E-03  0.18503830885E-01  0.50000500000E+01  0.50000000000E+01 0. -1.
     100001    1    1    2    0    0  0.12547450480E-01  0.41500486053E-03 -0.18503830885E-01  0.50000500000E+01  0.50000000000E+01 0.  1.
</event>
<event>
 4    1  0.4897575E-001  0.5000050E+01  0.7818608E-02  0.2136455E+00
        -11   -1    0    0    0    0  0.00000000000E+00  0.00000000000E+00  0.50000499739E+01  0.50000500000E+01  0.51100000000E-03 0.  1.
         11   -1    0    0    0    0 -0.00000000000E+00 -0.00000000000E+00 -0.50000499739E+01  0.50000500000E+01  0.51100000000E-03 0. -1.
     100001    1    1    2    0    0 -0.10250922133E-01  0.16507579066E-01 -0.11064399162E-01  0.50000500000E+01  0.50000000000E+01 0.  0.
     100001    1    1    2    0    0  0.10250922133E-01 -0.16507579066E-01  0.11064399162E-01  0.50000500000E+01  0.50000000000E+01 0.  0.
</event>
<event>
 4    1  0.4897575E-001  0.5000050E+01  0.7818608E-02  0.2136455E+00
        -11   -1    0    0    0    0  0.00000000000E+00  0.00000000000E+00  0.50000499739E+01  0.50000500000E+01  0.51100000000E-03 0.  1.
         11   -1    0    0    0    0 -0.00000000000E+00 -0.00000000000E+00 -0.50000499739E+01  0.50000500000E+01  0.51100000000E-03 0. -1.
     100001    1    1    2    0    0  0.15668572160E-01 -0.75959185955E-02  0.14028555420E-01  0.50000500000E+01  0.50000000000E+01 0.  1.
     100001    1    1    2    0    0 -0.15668572160E-01  0.75959185955E-02 -0.14028555420E-01  0.50000500000E+01  0.50000000000E+01 0. -1.
</event>
<event>
 4    1  0.4897575E-001  0.5000050E+01  0.7818608E-02  0.2136455E+00
        -11   -1    0    0    0    0  0.00000000000E+00  0.00000000000E+00  0.50000499739E+01  0.50000500000E+01  0.51100000000E-03 0.  1.
         11   -1    0    0    0    0 -0.00000000000E+00 -0.00000000000E+00 -0.50000499739E+01  0.50000500000E+01  0.51100000000E-03 0. -1.
     100001    1    1    2    0    0 -0.18341902190E-02  0.20417759142E-01 -0.89304735527E-02  0.50000500000E+01  0.50000000000E+01 0. -1.
     100001    1    1    2    0    0  0.18341902190E-02 -0.20417759142E-01  0.89304735527E-02  0.50000500000E+01  0.50000000000E+01 0.  1.
</event>
<event>
 4    1  0.4897575E-001  0.5000050E+01  0.7818608E-02  0.2136455E+00
        -11   -1    0    0    0    0  0.00000000000E+00  0.00000000000E+00  0.50000499739E+01  0.50000500000E+01  0.51100000000E-03 0. -1.
         11   -1    0    0    0    0 -0.00000000000E+00 -0.00000000000E+00 -0.50000499739E+01  0.50000500000E+01  0.51100000000E-03 0.  1.
     100001    1    1    2    0    0 -0.15761209276E-01 -0.14868302133E-01 -0.55245247598E-02  0.50000500000E+01  0.50000000000E+01 0.  1.
     100001    1    1    2    0    0  0.15761209276E-01  0.14868302133E-01  0.55245247598E-02  0.50000500000E+01  0.50000000000E+01 0. -1.
</event>
<event>
 4    1  0.4897575E-001  0.5000050E+01  0.7818608E-02  0.2136455E+00
        -11   -1    0    0    0    0  0.00000000000E+00  0.00000000000E+00  0.50000499739E+01  0.50000500000E+01  0.51100000000E-03 0. -1.
         11   -1    0    0    0    0 -0.00000000000E+00 -0.00000000000E+00 -0.50000499739E+01  0.50000500000E+01  0.51100000000E-03 0.  1.
     100001    1    1    2    0    0  0.12847867277E-02  0.14262945579E-01  0.17173241001E-01  0.50000500000E+01  0.50000000000E+01 0.  1.
     100001    1    1    2    0    0 -0.12847867277E-02 -0.14262945579E-01 -0.17173241001E-01  0.50000500000E+01  0.50000000000E+01 0.  1.
</event>
<event>
 4    1  0.4897575E-001  0.5000050E+01  0.7818608E-02  0.2136455E+00
        -11   -1    0    0    0    0  0.00000000000E+00  0.00000000000E+00  0.50000499739E+01  0.50000500000E+01  0.51100000000E-03 0. -1.
         11   -1    0    0    0    0 -0.00000000000E+00 -0.00000000000E+00 -0.50000499739E+01  0.50000500000E+01  0.51100000000E-03 0.  1.
     100001    1    1    2    0    0 -0.18496051462E-01  0.12538184102E-01 -0.83217771596E-03  0.50000500000E+01  0.50000000000E+01 0.  0.
     100001    1    1    2    0    0  0.18496051462E-01 -0.12538184102E-01  0.83217771596E-03  0.50000500000E+01  0.50000000000E+01 0.  1.
</event>
<event>
 4    1  0.4897575E-001  0.5000050E+01  0.7818608E-02  0.2136455E+00
        -11   -1    0    0    0    0  0.00000000000E+00  0.00000000000E+00  0.50000499739E+01  0.50000500000E+01  0.51100000000E-03 0. -1.
         11   -1    0    0    0    0 -0.00000000000E+00 -0.00000000000E+00 -0.50000499739E+01  0.50000500000E+01  0.51100000000E-03 0.  1.
     100001    1    1    2    0    0  0.11250572239E-01  0.18834760774E-01 -0.43219105574E-02  0.50000500000E+01  0.50000000000E+01 0.  1.
     100001    1    1    2    0    0 -0.11250572239E-01 -0.18834760774E-01  0.43219105574E-02  0.50000500000E+01  0.50000000000E+01 0. -1.
</event>
<event>
 4    1  0.4897575E-001  0.5000050E+01  0.7818608E-02  0.2136455E+00
        -11   -1    0    0    0    0  0.00000000000E+00  0.00000000000E+00  0.50000499739E+01  0.50000500000E+01  0.51100000000E-03 0.  1.
         11   -1    0    0    0    0 -0.00000000000E+00 -0.00000000000E+00 -0.50000499739E+01  0.50000500000E+01  0.51100000000E-03 0. -1.
     100001    1    1    2    0    0  0.20724921152E-01 -0.83725668541E-02 -0.61665834656E-03  0.50000500000E+01  0.50000000000E+01 0.  0.
     100001    1    1    2    0    0 -0.20724921152E-01  0.83725668541E-02  0.61665834656E-03  0.50000500000E+01  0.50000000000E+01 0. -1.
</event>
<event>
 4    1  0.1745886E+000  0.5000050E+01  0.7818608E-02  0.2136455E+00
        -11   -1    0    0    0    0  0.00000000000E+00  0.00000000000E+00  0.50000499739E+01  0.50000500000E+01  0.51100000000E-03 0.  1.
         11   -1    0    0    0    0 -0.00000000000E+00 -0.00000000000E+00 -0.50000499739E+01  0.50000500000E+01  0.51100000000E-03 0. -1.
     100001    1    1    2    0    0  0.20160125743E-02  0.12916237910E-02  0.22232181658E-01  0.50000500000E+01  0.50000000000E+01 0.  0.
     100001    1    1    2    0    0 -0.20160125743E-02 -0.12916237910E-02 -0.22232181658E-01  0.50000500000E+01  0.50000000000E+01 0. -1.
</event>
<event>
 4    1  0.4897575E-001  0.5000050E+01  0.7818608E-02  0.2136455E+00
        -11   -1    0    0    0    0  0.00000000000E+00  0.00000000000E+00  0.50000499739E+01  0.50000500000E+01  0.51100000000E-03 0. -1.
         11   -1    0    0    0    0 -0.00000000000E+00 -0.00000000000E+00 -0.50000499739E+01  0.50000500000E+01  0.51100000000E-03 0.  1.
     100001    1    1    2    0    0  0.50087977378E-02  0.45063034703E-02 -0.21321530767E-01  0.50000500000E+01  0.50000000000E+01 0.  0.
     100001    1    1    2    0    0 -0.50087977378E-02 -0.45063034703E-02  0.21321530767E-01  0.50000500000E+01  0.50000000000E+01 0. -1.
</event>
<event>
 4    1  0.4897575E-001  0.5000050E+01  0.7818608E-02  0.2136455E+00
        -11   -1    0    0    0    0  0.00000000000E+00  0.00000000000E+00  0.50000499739E+01  0.50000500000E+01  0.51100000000E-03 0. -1.
         11   -1    0    0    0    0 -0.00000000000E+00 -0.00000000000E+00 -0.50000499739E+01  0.50000500000E+01  0.51100000000E-03 0.  1.
     100001    1    1    2    0    0  0.13316768927E-01 -0.10495673095E-02 -0.17932221664E-01  0.50000500000E+01  0.50000000000E+01 0.  1.
     100001    1    1    2    0    0 -0.13316768927E-01  0.10495673095E-02  0.17932221664E-01  0.50000500000E+01  0.50000000000E+01 0. -1.
</event>
<event>
 4    1  0.4897575E-001  0.5000050E+01  0.7818608E-02  0.2136455E+00
        -11   -1    0    0    0    0  0.00000000000E+00  0.00000000000E+00  0.50000499739E+01  0.50000500000E+01  0.51100000000E-03 0. -1.
         11   -1    0    0    0    0 -0.00000000000E+00 -0.00000000000E+00 -0.50000499739E+01  0.50000500000E+01  0.51100000000E-03 0.  1.
     100001    1    1    2    0    0 -0.75120473139E-02 -0.32511801480E-02  0.20808687436E-01  0.50000500000E+01  0.50000000000E+01 0.  0.
     100001    1    1    2    0    0  0.75120473139E-02  0.32511801480E-02 -0.20808687436E-01  0.50000500000E+01  0.50000000000E+01 0.  1.
</event>
<event>
 4    1  0.4897575E-001  0.5000050E+01  0.7818608E-02  0.2136455E+00
        -11   -1    0    0    0    0  0.00000000000E+00  0.00000000000E+00  0.50000499739E+01  0.50000500000E+01  0.51100000000E-03 0. -1.
         11   -1    0    0    0    0 -0.00000000000E+00 -0.00000000000E+00 -0.50000499739E+01  0.50000500000E+01  0.51100000000E-03 0.  1.
     100001    1    1    2    0    0  0.39791305776E-02 -0.48258639000E-02 -0.21468117231E-01  0.50000500000E+01  0.50000000000E+01 0.  1.
     100001    1    1    2    0    0 -0.39791305776E-02  0.48258639000E-02  0.21468117231E-01  0.50000500000E+01  0.50000000000E+01 0.  0.
</event>
<event>
 4    1  0.4897575E-001  0.5000050E+01  0.7818608E-02  0.2136455E+00
        -11   -1    0    0    0    0  0.00000000000E+00  0.00000000000E+00  0.50000499739E+01  0.50000500000E+01  0.51100000000E-03 0.  1.
         11   -1    0    0    0    0 -0.00000000000E+00 -0.00000000000E+00 -0.50000499739E+01  0.50000500000E+01  0.51100000000E-03 0. -1.
     100001    1    1    2    0    0  0.17044990158E-01 -0.14213326848E-01 -0.27298627144E-02  0.50000500000E+01  0.50000000000E+01 0.  0.
     100001    1    1    2    0    0 -0.17044990158E-01  0.14213326848E-01  0.27298627144E-02  0.50000500000E+01  0.50000000000E+01 0. -1.
</event>
<event>
 4    1  0.4897575E-001  0.5000050E+01  0.7818608E-02  0.2136455E+00
        -11   -1    0    0    0    0  0.00000000000E+00  0.00000000000E+00  0.50000499739E+01  0.50000500000E+01  0.51100000000E-03 0.  1.
         11   -1    0    0    0    0 -0.00000000000E+00 -0.00000000000E+00 -0.50000499739E+01  0.50000500000E+01  0.51100000000E-03 0. -1.
     100001    1    1    2    0    0 -0.13249241533E-01  0.15870603956E-01 -0.85196260990E-02  0.50000500000E+01  0.50000000000E+01 0. -1.
     100001    1    1    2    0    0  0.13249241533E-01 -0.15870603956E-01  0.85196260990E-02  0.50000500000E+01  0.50000000000E+01 0.  1.
</event>
<event>
 4    1  0.4897575E-001  0.5000050E+01  0.7818608E-02  0.2136455E+00
        -11   -1    0    0    0    0  0.00000000000E+00  0.00000000000E+00  0.50000499739E+01  0.50000500000E+01  0.51100000000E-03 0.  1.
         11   -1    0    0    0    0 -0.00000000000E+00 -0.00000000000E+00 -0.50000499739E+01  0.50000500000E+01  0.51100000000E-03 0. -1.
     100001    1    1    2    0    0 -0.25426163216E-02 -0.13312774655E-01 -0.17785039590E-01  0.50000500000E+01  0.50000000000E+01 0. -1.
     100001    1    1    2    0    0  0.25426163216E-02  0.13312774655E-01  0.17785039590E-01  0.50000500000E+01  0.50000000000E+01 0.  1.
</event>
<event>
 4    1  0.4897575E-001  0.5000050E+01  0.7818608E-02  0.2136455E+00
        -11   -1    0    0    0    0  0.00000000000E+00  0.00000000000E+00  0.50000499739E+01  0.50000500000E+01  0.51100000000E-03 0.  1.
         11   -1    0    0    0    0 -0.00000000000E+00 -0.00000000000E+00 -0.50000499739E+01  0.50000500000E+01  0.51100000000E-03 0. -1.
     100001    1    1    2    0    0  0.17418492389E-01 -0.13243102521E-01  0.46063932182E-02  0.50000500000E+01  0.50000000000E+01 0.  1.
     100001    1    1    2    0    0 -0.17418492389E-01  0.13243102521E-01 -0.46063932182E-02  0.50000500000E+01  0.50000000000E+01 0. -1.
</event>
<event>
 4    1  0.4897575E-001  0.5000050E+01  0.7818608E-02  0.2136455E+00
        -11   -1    0    0    0    0  0.00000000000E+00  0.00000000000E+00  0.50000499739E+01  0.50000500000E+01  0.51100000000E-03 0.  1.
         11   -1    0    0    0    0 -0.00000000000E+00 -0.00000000000E+00 -0.50000499739E+01  0.50000500000E+01  0.51100000000E-03 0. -1.
     100001    1    1    2    0    0 -0.13441041811E-01  0.63257037591E-02  0.16713059773E-01  0.50000500000E+01  0.50000000000E+01 0.  1.
     100001    1    1    2    0    0  0.13441041811E-01 -0.63257037591E-02 -0.16713059773E-01  0.50000500000E+01  0.50000000000E+01 0. -1.
</event>
<event>
 4    1  0.4897575E-001  0.5000050E+01  0.7818608E-02  0.2136455E+00
        -11   -1    0    0    0    0  0.00000000000E+00  0.00000000000E+00  0.50000499739E+01  0.50000500000E+01  0.51100000000E-03 0. -1.
         11   -1    0    0    0    0 -0.00000000000E+00 -0.00000000000E+00 -0.50000499739E+01  0.50000500000E+01  0.51100000000E-03 0.  1.
     100001    1    1    2    0    0 -0.11046964994E-01  0.17875677795E-01 -0.76437692135E-02  0.50000500000E+01  0.50000000000E+01 0.  1.
     100001    1    1    2    0    0  0.11046964994E-01 -0.17875677795E-01  0.76437692135E-02  0.50000500000E+01  0.50000000000E+01 0. -1.
</event>
<event>
 4    1  0.4897575E-001  0.5000050E+01  0.7818608E-02  0.2136455E+00
        -11   -1    0    0    0    0  0.00000000000E+00  0.00000000000E+00  0.50000499739E+01  0.50000500000E+01  0.51100000000E-03 0. -1.
         11   -1    0    0    0    0 -0.00000000000E+00 -0.00000000000E+00 -0.50000499739E+01  0.50000500000E+01  0.51100000000E-03 0.  1.
     100001    1    1    2    0    0  0.16298690388E-01 -0.48561010284E-02  0.14518039621E-01  0.50000500000E+01  0.50000000000E+01 0.  1.
     100001    1    1    2    0    0 -0.16298690388E-01  0.48561010284E-02 -0.14518039621E-01  0.50000500000E+01  0.50000000000E+01 0.  0.
</event>
<event>
 4    1  0.4897575E-001  0.5000050E+01  0.7818608E-02  0.2136455E+00
        -11   -1    0    0    0    0  0.00000000000E+00  0.00000000000E+00  0.50000499739E+01  0.50000500000E+01  0.51100000000E-03 0. -1.
         11   -1    0    0    0    0 -0.00000000000E+00 -0.00000000000E+00 -0.50000499739E+01  0.50000500000E+01  0.51100000000E-03 0.  1.
     100001    1    1    2    0    0 -0.10368439021E-01  0.18746379812E-01  0.64086828778E-02  0.50000500000E+01  0.50000000000E+01 0. -1.
     100001    1    1    2    0    0  0.10368439021E-01 -0.18746379812E-01 -0.64086828778E-02  0.50000500000E+01  0.50000000000E+01 0.  1.
</event>
<event>
 4    1  0.4897575E-001  0.5000050E+01  0.7818608E-02  0.2136455E+00
        -11   -1    0    0    0    0  0.00000000000E+00  0.00000000000E+00  0.50000499739E+01  0.50000500000E+01  0.51100000000E-03 0. -1.
         11   -1    0    0    0    0 -0.00000000000E+00 -0.00000000000E+00 -0.50000499739E+01  0.50000500000E+01  0.51100000000E-03 0.  1.
     100001    1    1    2    0    0  0.12209566855E-01 -0.97275450616E-02  0.16009492318E-01  0.50000500000E+01  0.50000000000E+01 0.  0.
     100001    1    1    2    0    0 -0.12209566855E-01  0.97275450616E-02 -0.16009492318E-01  0.50000500000E+01  0.50000000000E+01 0.  0.
</event>
<event>
 4    1  0.4897575E-001  0.5000050E+01  0.7818608E-02  0.2136455E+00
        -11   -1    0    0    0    0  0.00000000000E+00  0.00000000000E+00  0.50000499739E+01  0.50000500000E+01  0.51100000000E-03 0.  1.
         11   -1    0    0    0    0 -0.00000000000E+00 -0.00000000000E+00 -0.50000499739E+01  0.50000500000E+01  0.51100000000E-03 0. -1.
     100001    1    1    2    0    0  0.13249466457E-01  0.17488438687E-01  0.43137745538E-02  0.50000500000E+01  0.50000000000E+01 0. -1.
     100001    1    1    2    0    0 -0.13249466457E-01 -0.17488438687E-01 -0.43137745538E-02  0.50000500000E+01  0.50000000000E+01 0.  1.
</event>
<event>
 4    1  0.4897575E-001  0.5000050E+01  0.7818608E-02  0.2136455E+00
        -11   -1    0    0    0    0  0.00000000000E+00  0.00000000000E+00  0.50000499739E+01  0.50000500000E+01  0.51100000000E-03 0.  1.
         11   -1    0    0    0    0 -0.00000000000E+00 -0.00000000000E+00 -0.50000499739E+01  0.50000500000E+01  0.51100000000E-03 0. -1.
     100001    1    1    2    0    0  0.82364981020E-02  0.10828313795E-01 -0.17745709886E-01  0.50000500000E+01  0.50000000000E+01 0. -1.
     100001    1    1    2    0    0 -0.82364981020E-02 -0.10828313795E-01  0.17745709886E-01  0.50000500000E+01  0.50000000000E+01 0.  1.
</event>
<event>
 4    1  0.4897575E-001  0.5000050E+01  0.7818608E-02  0.2136455E+00
        -11   -1    0    0    0    0  0.00000000000E+00  0.00000000000E+00  0.50000499739E+01  0.50000500000E+01  0.51100000000E-03 0.  1.
         11   -1    0    0    0    0 -0.00000000000E+00 -0.00000000000E+00 -0.50000499739E+01  0.50000500000E+01  0.51100000000E-03 0. -1.
     100001    1    1    2    0    0  0.21667900528E-01  0.45091743752E-02 -0.31893468202E-02  0.50000500000E+01  0.50000000000E+01 0. -1.
     100001    1    1    2    0    0 -0.21667900528E-01 -0.45091743752E-02  0.31893468202E-02  0.50000500000E+01  0.50000000000E+01 0.  1.
</event>
<event>
 4    1  0.4897575E-001  0.5000050E+01  0.7818608E-02  0.2136455E+00
        -11   -1    0    0    0    0  0.00000000000E+00  0.00000000000E+00  0.50000499739E+01  0.50000500000E+01  0.51100000000E-03 0. -1.
         11   -1    0    0    0    0 -0.00000000000E+00 -0.00000000000E+00 -0.50000499739E+01  0.50000500000E+01  0.51100000000E-03 0.  1.
     100001    1    1    2    0    0  0.16538753211E-01 -0.13585804608E-01 -0.64728707211E-02  0.50000500000E+01  0.50000000000E+01 0.  1.
     100001    1    1    2    0    0 -0.16538753211E-01  0.13585804608E-01  0.64728707211E-02  0.50000500000E+01  0.50000000000E+01 0. -1.
</event>
<event>
 4    1  0.4897575E-001  0.5000050E+01  0.7818608E-02  0.2136455E+00
        -11   -1    0    0    0    0  0.00000000000E+00  0.00000000000E+00  0.50000499739E+01  0.50000500000E+01  0.51100000000E-03 0. -1.
         11   -1    0    0    0    0 -0.00000000000E+00 -0.00000000000E+00 -0.50000499739E+01  0.50000500000E+01  0.51100000000E-03 0.  1.
     100001    1    1    2    0    0 -0.61730731761E-02 -0.50015369675E-02  0.20901681643E-01  0.50000500000E+01  0.50000000000E+01 0.  0.
     100001    1    1    2    0    0  0.61730731761E-02  0.50015369675E-02 -0.20901681643E-01  0.50000500000E+01  0.50000000000E+01 0.  0.
</event>
<event>
 4    1  0.4897575E-001  0.5000050E+01  0.7818608E-02  0.2136455E+00
        -11   -1    0    0    0    0  0.00000000000E+00  0.00000000000E+00  0.50000499739E+01  0.50000500000E+01  0.51100000000E-03 0.  1.
         11   -1    0    0    0    0 -0.00000000000E+00 -0.00000000000E+00 -0.50000499739E+01  0.50000500000E+01  0.51100000000E-03 0. -1.
     100001    1    1    2    0    0  0.19406630805E-01 -0.10301360932E-01  0.41553752863E-02  0.50000500000E+01  0.50000000000E+01 0.  0.
     100001    1    1    2    0    0 -0.19406630805E-01  0.10301360932E-01 -0.41553752863E-02  0.50000500000E+01  0.50000000000E+01 0.  1.
</event>
<event>
 4    1  0.4897575E-001  0.5000050E+01  0.7818608E-02  0.2136455E+00
        -11   -1    0    0    0    0  0.00000000000E+00  0.00000000000E+00  0.50000499739E+01  0.50000500000E+01  0.51100000000E-03 0.  1.
         11   -1    0    0    0    0 -0.00000000000E+00 -0.00000000000E+00 -0.50000499739E+01  0.50000500000E+01  0.51100000000E-03 0. -1.
     100001    1    1    2    0    0  0.87059455100E-03  0.22070084065E-01 -0.34865390422E-02  0.50000500000E+01  0.50000000000E+01 0.  1.
     100001    1    1    2    0    0 -0.87059455100E-03 -0.22070084065E-01  0.34865390422E-02  0.50000500000E+01  0.50000000000E+01 0.  0.
</event>
<event>
 4    1  0.4897575E-001  0.5000050E+01  0.7818608E-02  0.2136455E+00
        -11   -1    0    0    0    0  0.00000000000E+00  0.00000000000E+00  0.50000499739E+01  0.50000500000E+01  0.51100000000E-03 0. -1.
         11   -1    0    0    0    0 -0.00000000000E+00 -0.00000000000E+00 -0.50000499739E+01  0.50000500000E+01  0.51100000000E-03 0.  1.
     100001    1    1    2    0    0 -0.92039733002E-02  0.85244344792E-02 -0.18510088933E-01  0.50000500000E+01  0.50000000000E+01 0.  1.
     100001    1    1    2    0    0  0.92039733002E-02 -0.85244344792E-02  0.18510088933E-01  0.50000500000E+01  0.50000000000E+01 0. -1.
</event>
<event>
 4    1  0.4897575E-001  0.5000050E+01  0.7818608E-02  0.2136455E+00
        -11   -1    0    0    0    0  0.00000000000E+00  0.00000000000E+00  0.50000499739E+01  0.50000500000E+01  0.51100000000E-03 0.  1.
         11   -1    0    0    0    0 -0.00000000000E+00 -0.00000000000E+00 -0.50000499739E+01  0.50000500000E+01  0.51100000000E-03 0. -1.
     100001    1    1    2    0    0  0.32116881855E-02 -0.22128613951E-01  0.10956095657E-03  0.50000500000E+01  0.50000000000E+01 0. -1.
     100001    1    1    2    0    0 -0.32116881855E-02  0.22128613951E-01 -0.10956095657E-03  0.50000500000E+01  0.50000000000E+01 0.  1.
</event>
<event>
 4    1  0.4897575E-001  0.5000050E+01  0.7818608E-02  0.2136455E+00
        -11   -1    0    0    0    0  0.00000000000E+00  0.00000000000E+00  0.50000499739E+01  0.50000500000E+01  0.51100000000E-03 0. -1.
         11   -1    0    0    0    0 -0.00000000000E+00 -0.00000000000E+00 -0.50000499739E+01  0.50000500000E+01  0.51100000000E-03 0.  1.
     100001    1    1    2    0    0  0.18916004293E-01 -0.87120664284E-02 -0.81416939345E-02  0.50000500000E+01  0.50000000000E+01 0.  1.
     100001    1    1    2    0    0 -0.18916004293E-01  0.87120664284E-02  0.81416939345E-02  0.50000500000E+01  0.50000000000E+01 0. -1.
</event>
<event>
 4    1  0.4897575E-001  0.5000050E+01  0.7818608E-02  0.2136455E+00
        -11   -1    0    0    0    0  0.00000000000E+00  0.00000000000E+00  0.50000499739E+01  0.50000500000E+01  0.51100000000E-03 0.  1.
         11   -1    0    0    0    0 -0.00000000000E+00 -0.00000000000E+00 -0.50000499739E+01  0.50000500000E+01  0.51100000000E-03 0. -1.
     100001    1    1    2    0    0 -0.22333870068E-01  0.71641353126E-03 -0.82915585533E-03  0.50000500000E+01  0.50000000000E+01 0.  1.
     100001    1    1    2    0    0  0.22333870068E-01 -0.71641353126E-03  0.82915585533E-03  0.50000500000E+01  0.50000000000E+01 0.  0.
</event>
<event>
 4    1  0.4897575E-001  0.5000050E+01  0.7818608E-02  0.2136455E+00
        -11   -1    0    0    0    0  0.00000000000E+00  0.00000000000E+00  0.50000499739E+01  0.50000500000E+01  0.51100000000E-03 0. -1.
         11   -1    0    0    0    0 -0.00000000000E+00 -0.00000000000E+00 -0.50000499739E+01  0.50000500000E+01  0.51100000000E-03 0.  1.
     100001    1    1    2    0    0 -0.82795700818E-02 -0.18193820521E-01 -0.10021781982E-01  0.50000500000E+01  0.50000000000E+01 0.  0.
     100001    1    1    2    0    0  0.82795700818E-02  0.18193820521E-01  0.10021781982E-01  0.50000500000E+01  0.50000000000E+01 0.  1.
</event>
<event>
 4    1  0.4897575E-001  0.5000050E+01  0.7818608E-02  0.2136455E+00
        -11   -1    0    0    0    0  0.00000000000E+00  0.00000000000E+00  0.50000499739E+01  0.50000500000E+01  0.51100000000E-03 0.  1.
         11   -1    0    0    0    0 -0.00000000000E+00 -0.00000000000E+00 -0.50000499739E+01  0.50000500000E+01  0.51100000000E-03 0. -1.
     100001    1    1    2    0    0  0.40432188299E-02  0.21949995567E-01  0.13610937124E-02  0.50000500000E+01  0.50000000000E+01 0.  1.
     100001    1    1    2    0    0 -0.40432188299E-02 -0.21949995567E-01 -0.13610937124E-02  0.50000500000E+01  0.50000000000E+01 0. -1.
</event>
<event>
 4    1  0.4897575E-001  0.5000050E+01  0.7818608E-02  0.2136455E+00
        -11   -1    0    0    0    0  0.00000000000E+00  0.00000000000E+00  0.50000499739E+01  0.50000500000E+01  0.51100000000E-03 0. -1.
         11   -1    0    0    0    0 -0.00000000000E+00 -0.00000000000E+00 -0.50000499739E+01  0.50000500000E+01  0.51100000000E-03 0.  1.
     100001    1    1    2    0    0  0.11646787526E-01  0.17126780505E-01 -0.84278247403E-02  0.50000500000E+01  0.50000000000E+01 0.  1.
     100001    1    1    2    0    0 -0.11646787526E-01 -0.17126780505E-01  0.84278247403E-02  0.50000500000E+01  0.50000000000E+01 0. -1.
</event>
<event>
 4    1  0.4897575E-001  0.5000050E+01  0.7818608E-02  0.2136455E+00
        -11   -1    0    0    0    0  0.00000000000E+00  0.00000000000E+00  0.50000499739E+01  0.50000500000E+01  0.51100000000E-03 0.  1.
         11   -1    0    0    0    0 -0.00000000000E+00 -0.00000000000E+00 -0.50000499739E+01  0.50000500000E+01  0.51100000000E-03 0. -1.
     100001    1    1    2    0    0  0.10854846225E-01 -0.13104819800E-02  0.19505318516E-01  0.50000500000E+01  0.50000000000E+01 0.  0.
     100001    1    1    2    0    0 -0.10854846225E-01  0.13104819800E-02 -0.19505318516E-01  0.50000500000E+01  0.50000000000E+01 0. -1.
</event>
<event>
 4    1  0.4897575E-001  0.5000050E+01  0.7818608E-02  0.2136455E+00
        -11   -1    0    0    0    0  0.00000000000E+00  0.00000000000E+00  0.50000499739E+01  0.50000500000E+01  0.51100000000E-03 0. -1.
         11   -1    0    0    0    0 -0.00000000000E+00 -0.00000000000E+00 -0.50000499739E+01  0.50000500000E+01  0.51100000000E-03 0.  1.
     100001    1    1    2    0    0  0.21442119887E-02  0.17923215704E-01 -0.13197090353E-01  0.50000500000E+01  0.50000000000E+01 0. -1.
     100001    1    1    2    0    0 -0.21442119887E-02 -0.17923215704E-01  0.13197090353E-01  0.50000500000E+01  0.50000000000E+01 0.  0.
</event>
<event>
 4    1  0.4897575E-001  0.5000050E+01  0.7818608E-02  0.2136455E+00
        -11   -1    0    0    0    0  0.00000000000E+00  0.00000000000E+00  0.50000499739E+01  0.50000500000E+01  0.51100000000E-03 0. -1.
         11   -1    0    0    0    0 -0.00000000000E+00 -0.00000000000E+00 -0.50000499739E+01  0.50000500000E+01  0.51100000000E-03 0.  1.
     100001    1    1    2    0    0 -0.99731472160E-02 -0.16025594336E-01  0.11988292656E-01  0.50000500000E+01  0.50000000000E+01 0. -1.
     100001    1    1    2    0    0  0.99731472160E-02  0.16025594336E-01 -0.11988292656E-01  0.50000500000E+01  0.50000000000E+01 0.  1.
</event>
<event>
 4    1  0.4897575E-001  0.5000050E+01  0.7818608E-02  0.2136455E+00
        -11   -1    0    0    0    0  0.00000000000E+00  0.00000000000E+00  0.50000499739E+01  0.50000500000E+01  0.51100000000E-03 0.  1.
         11   -1    0    0    0    0 -0.00000000000E+00 -0.00000000000E+00 -0.50000499739E+01  0.50000500000E+01  0.51100000000E-03 0. -1.
     100001    1    1    2    0    0  0.18848726546E-01  0.13771515255E-02 -0.11951211707E-01  0.50000500000E+01  0.50000000000E+01 0. -1.
     100001    1    1    2    0    0 -0.18848726546E-01 -0.13771515255E-02  0.11951211707E-01  0.50000500000E+01  0.50000000000E+01 0. -1.
</event>
<event>
 4    1  0.4897575E-001  0.5000050E+01  0.7818608E-02  0.2136455E+00
        -11   -1    0    0    0    0  0.00000000000E+00  0.00000000000E+00  0.50000499739E+01  0.50000500000E+01  0.51100000000E-03 0. -1.
         11   -1    0    0    0    0 -0.00000000000E+00 -0.00000000000E+00 -0.50000499739E+01  0.50000500000E+01  0.51100000000E-03 0.  1.
     100001    1    1    2    0    0  0.10555259500E-01  0.14397425014E-01 -0.13464885810E-01  0.50000500000E+01  0.50000000000E+01 0.  1.
     100001    1    1    2    0    0 -0.10555259500E-01 -0.14397425014E-01  0.13464885810E-01  0.50000500000E+01  0.50000000000E+01 0.  1.
</event>
<event>
 4    1  0.4897575E-001  0.5000050E+01  0.7818608E-02  0.2136455E+00
        -11   -1    0    0    0    0  0.00000000000E+00  0.00000000000E+00  0.50000499739E+01  0.50000500000E+01  0.51100000000E-03 0. -1.
         11   -1    0    0    0    0 -0.00000000000E+00 -0.00000000000E+00 -0.50000499739E+01  0.50000500000E+01  0.51100000000E-03 0.  1.
     100001    1    1    2    0    0  0.20172510764E-01 -0.72685306494E-02 -0.63435614344E-02  0.50000500000E+01  0.50000000000E+01 0.  1.
     100001    1    1    2    0    0 -0.20172510764E-01  0.72685306494E-02  0.63435614344E-02  0.50000500000E+01  0.50000000000E+01 0.  1.
</event>
<event>
 4    1  0.4897575E-001  0.5000050E+01  0.7818608E-02  0.2136455E+00
        -11   -1    0    0    0    0  0.00000000000E+00  0.00000000000E+00  0.50000499739E+01  0.50000500000E+01  0.51100000000E-03 0. -1.
         11   -1    0    0    0    0 -0.00000000000E+00 -0.00000000000E+00 -0.50000499739E+01  0.50000500000E+01  0.51100000000E-03 0.  1.
     100001    1    1    2    0    0  0.10343874435E-01  0.17858570446E-01 -0.86068707032E-02  0.50000500000E+01  0.50000000000E+01 0.  1.
     100001    1    1    2    0    0 -0.10343874435E-01 -0.17858570446E-01  0.86068707032E-02  0.50000500000E+01  0.50000000000E+01 0. -1.
</event>
<event>
 4    1  0.4897575E-001  0.5000050E+01  0.7818608E-02  0.2136455E+00
        -11   -1    0    0    0    0  0.00000000000E+00  0.00000000000E+00  0.50000499739E+01  0.50000500000E+01  0.51100000000E-03 0. -1.
         11   -1    0    0    0    0 -0.00000000000E+00 -0.00000000000E+00 -0.50000499739E+01  0.50000500000E+01  0.51100000000E-03 0.  1.
     100001    1    1    2    0    0  0.21710355065E-01 -0.40934512972E-02 -0.34505998659E-02  0.50000500000E+01  0.50000000000E+01 0.  1.
     100001    1    1    2    0    0 -0.21710355065E-01  0.40934512972E-02  0.34505998659E-02  0.50000500000E+01  0.50000000000E+01 0. -1.
</event>
<event>
 4    1  0.4897575E-001  0.5000050E+01  0.7818608E-02  0.2136455E+00
        -11   -1    0    0    0    0  0.00000000000E+00  0.00000000000E+00  0.50000499739E+01  0.50000500000E+01  0.51100000000E-03 0. -1.
         11   -1    0    0    0    0 -0.00000000000E+00 -0.00000000000E+00 -0.50000499739E+01  0.50000500000E+01  0.51100000000E-03 0.  1.
     100001    1    1    2    0    0 -0.12280767088E-01  0.85964389451E-02 -0.16591759918E-01  0.50000500000E+01  0.50000000000E+01 0.  1.
     100001    1    1    2    0    0  0.12280767088E-01 -0.85964389451E-02  0.16591759918E-01  0.50000500000E+01  0.50000000000E+01 0. -1.
</event>
<event>
 4    1  0.4897575E-001  0.5000050E+01  0.7818608E-02  0.2136455E+00
        -11   -1    0    0    0    0  0.00000000000E+00  0.00000000000E+00  0.50000499739E+01  0.50000500000E+01  0.51100000000E-03 0. -1.
         11   -1    0    0    0    0 -0.00000000000E+00 -0.00000000000E+00 -0.50000499739E+01  0.50000500000E+01  0.51100000000E-03 0.  1.
     100001    1    1    2    0    0  0.11588637138E-01  0.17408193990E-01  0.79158556894E-02  0.50000500000E+01  0.50000000000E+01 0.  1.
     100001    1    1    2    0    0 -0.11588637138E-01 -0.17408193990E-01 -0.79158556894E-02  0.50000500000E+01  0.50000000000E+01 0.  0.
</event>
<event>
 4    1  0.4897575E-001  0.5000050E+01  0.7818608E-02  0.2136455E+00
        -11   -1    0    0    0    0  0.00000000000E+00  0.00000000000E+00  0.50000499739E+01  0.50000500000E+01  0.51100000000E-03 0. -1.
         11   -1    0    0    0    0 -0.00000000000E+00 -0.00000000000E+00 -0.50000499739E+01  0.50000500000E+01  0.51100000000E-03 0.  1.
     100001    1    1    2    0    0  0.16994204015E-01 -0.46610748468E-03  0.14525228870E-01  0.50000500000E+01  0.50000000000E+01 0. -1.
     100001    1    1    2    0    0 -0.16994204015E-01  0.46610748468E-03 -0.14525228870E-01  0.50000500000E+01  0.50000000000E+01 0.  1.
</event>
<event>
 4    1  0.4897575E-001  0.5000050E+01  0.7818608E-02  0.2136455E+00
        -11   -1    0    0    0    0  0.00000000000E+00  0.00000000000E+00  0.50000499739E+01  0.50000500000E+01  0.51100000000E-03 0.  1.
         11   -1    0    0    0    0 -0.00000000000E+00 -0.00000000000E+00 -0.50000499739E+01  0.50000500000E+01  0.51100000000E-03 0. -1.
     100001    1    1    2    0    0  0.76957227561E-02  0.14167127386E-01 -0.15494219984E-01  0.50000500000E+01  0.50000000000E+01 0.  0.
     100001    1    1    2    0    0 -0.76957227561E-02 -0.14167127386E-01  0.15494219984E-01  0.50000500000E+01  0.50000000000E+01 0.  0.
</event>
<event>
 4    1  0.4897575E-001  0.5000050E+01  0.7818608E-02  0.2136455E+00
        -11   -1    0    0    0    0  0.00000000000E+00  0.00000000000E+00  0.50000499739E+01  0.50000500000E+01  0.51100000000E-03 0. -1.
         11   -1    0    0    0    0 -0.00000000000E+00 -0.00000000000E+00 -0.50000499739E+01  0.50000500000E+01  0.51100000000E-03 0.  1.
     100001    1    1    2    0    0  0.21278376767E-01 -0.32334912427E-02  0.60644634186E-02  0.50000500000E+01  0.50000000000E+01 0.  1.
     100001    1    1    2    0    0 -0.21278376767E-01  0.32334912427E-02 -0.60644634186E-02  0.50000500000E+01  0.50000000000E+01 0.  0.
</event>
<event>
 4    1  0.4897575E-001  0.5000050E+01  0.7818608E-02  0.2136455E+00
        -11   -1    0    0    0    0  0.00000000000E+00  0.00000000000E+00  0.50000499739E+01  0.50000500000E+01  0.51100000000E-03 0.  1.
         11   -1    0    0    0    0 -0.00000000000E+00 -0.00000000000E+00 -0.50000499739E+01  0.50000500000E+01  0.51100000000E-03 0. -1.
     100001    1    1    2    0    0  0.44290193701E-03  0.65359733179E-02  0.21379602210E-01  0.50000500000E+01  0.50000000000E+01 0.  0.
     100001    1    1    2    0    0 -0.44290193701E-03 -0.65359733179E-02 -0.21379602210E-01  0.50000500000E+01  0.50000000000E+01 0.  0.
</event>
<event>
 4    1  0.4897575E-001  0.5000050E+01  0.7818608E-02  0.2136455E+00
        -11   -1    0    0    0    0  0.00000000000E+00  0.00000000000E+00  0.50000499739E+01  0.50000500000E+01  0.51100000000E-03 0. -1.
         11   -1    0    0    0    0 -0.00000000000E+00 -0.00000000000E+00 -0.50000499739E+01  0.50000500000E+01  0.51100000000E-03 0.  1.
     100001    1    1    2    0    0 -0.41680962876E-02 -0.21019080259E-01 -0.63896587068E-02  0.50000500000E+01  0.50000000000E+01 0.  0.
     100001    1    1    2    0    0  0.41680962876E-02  0.21019080259E-01  0.63896587068E-02  0.50000500000E+01  0.50000000000E+01 0.  1.
</event>
<event>
 4    1  0.4897575E-001  0.5000050E+01  0.7818608E-02  0.2136455E+00
        -11   -1    0    0    0    0  0.00000000000E+00  0.00000000000E+00  0.50000499739E+01  0.50000500000E+01  0.51100000000E-03 0. -1.
         11   -1    0    0    0    0 -0.00000000000E+00 -0.00000000000E+00 -0.50000499739E+01  0.50000500000E+01  0.51100000000E-03 0.  1.
     100001    1    1    2    0    0 -0.16833560717E-01 -0.19290404779E-02 -0.14591522759E-01  0.50000500000E+01  0.50000000000E+01 0.  1.
     100001    1    1    2    0    0  0.16833560717E-01  0.19290404779E-02  0.14591522759E-01  0.50000500000E+01  0.50000000000E+01 0. -1.
</event>
<event>
 4    1  0.4897575E-001  0.5000050E+01  0.7818608E-02  0.2136455E+00
        -11   -1    0    0    0    0  0.00000000000E+00  0.00000000000E+00  0.50000499739E+01  0.50000500000E+01  0.51100000000E-03 0. -1.
         11   -1    0    0    0    0 -0.00000000000E+00 -0.00000000000E+00 -0.50000499739E+01  0.50000500000E+01  0.51100000000E-03 0.  1.
     100001    1    1    2    0    0 -0.68986481583E-02  0.77901364466E-03 -0.21255688446E-01  0.50000500000E+01  0.50000000000E+01 0.  0.
     100001    1    1    2    0    0  0.68986481583E-02 -0.77901364466E-03  0.21255688446E-01  0.50000500000E+01  0.50000000000E+01 0.  0.
</event>
<event>
 4    1  0.4897575E-001  0.5000050E+01  0.7818608E-02  0.2136455E+00
        -11   -1    0    0    0    0  0.00000000000E+00  0.00000000000E+00  0.50000499739E+01  0.50000500000E+01  0.51100000000E-03 0.  1.
         11   -1    0    0    0    0 -0.00000000000E+00 -0.00000000000E+00 -0.50000499739E+01  0.50000500000E+01  0.51100000000E-03 0. -1.
     100001    1    1    2    0    0  0.54506560389E-02  0.21185443795E-01 -0.46335537071E-02  0.50000500000E+01  0.50000000000E+01 0.  0.
     100001    1    1    2    0    0 -0.54506560389E-02 -0.21185443795E-01  0.46335537071E-02  0.50000500000E+01  0.50000000000E+01 0. -1.
</event>
<event>
 4    1  0.4897575E-001  0.5000050E+01  0.7818608E-02  0.2136455E+00
        -11   -1    0    0    0    0  0.00000000000E+00  0.00000000000E+00  0.50000499739E+01  0.50000500000E+01  0.51100000000E-03 0.  1.
         11   -1    0    0    0    0 -0.00000000000E+00 -0.00000000000E+00 -0.50000499739E+01  0.50000500000E+01  0.51100000000E-03 0. -1.
     100001    1    1    2    0    0 -0.15836972243E-01 -0.14854526345E-01 -0.53418964090E-02  0.50000500000E+01  0.50000000000E+01 0. -1.
     100001    1    1    2    0    0  0.15836972243E-01  0.14854526345E-01  0.53418964090E-02  0.50000500000E+01  0.50000000000E+01 0.  0.
</event>
<event>
 4    1  0.4897575E-001  0.5000050E+01  0.7818608E-02  0.2136455E+00
        -11   -1    0    0    0    0  0.00000000000E+00  0.00000000000E+00  0.50000499739E+01  0.50000500000E+01  0.51100000000E-03 0.  1.
         11   -1    0    0    0    0 -0.00000000000E+00 -0.00000000000E+00 -0.50000499739E+01  0.50000500000E+01  0.51100000000E-03 0. -1.
     100001    1    1    2    0    0  0.21974850027E-01 -0.15565352693E-02 -0.38321879185E-02  0.50000500000E+01  0.50000000000E+01 0. -1.
     100001    1    1    2    0    0 -0.21974850027E-01  0.15565352693E-02  0.38321879185E-02  0.50000500000E+01  0.50000000000E+01 0.  1.
</event>
<event>
 4    1  0.4897575E-001  0.5000050E+01  0.7818608E-02  0.2136455E+00
        -11   -1    0    0    0    0  0.00000000000E+00  0.00000000000E+00  0.50000499739E+01  0.50000500000E+01  0.51100000000E-03 0. -1.
         11   -1    0    0    0    0 -0.00000000000E+00 -0.00000000000E+00 -0.50000499739E+01  0.50000500000E+01  0.51100000000E-03 0.  1.
     100001    1    1    2    0    0  0.46962538998E-02 -0.19506168515E-01 -0.98720357159E-02  0.50000500000E+01  0.50000000000E+01 0. -1.
     100001    1    1    2    0    0 -0.46962538998E-02  0.19506168515E-01  0.98720357159E-02  0.50000500000E+01  0.50000000000E+01 0.  0.
</event>
<event>
 4    1  0.4897575E-001  0.5000050E+01  0.7818608E-02  0.2136455E+00
        -11   -1    0    0    0    0  0.00000000000E+00  0.00000000000E+00  0.50000499739E+01  0.50000500000E+01  0.51100000000E-03 0.  1.
         11   -1    0    0    0    0 -0.00000000000E+00 -0.00000000000E+00 -0.50000499739E+01  0.50000500000E+01  0.51100000000E-03 0. -1.
     100001    1    1    2    0    0 -0.35924012718E-02 -0.15768507607E-01  0.15441869088E-01  0.50000500000E+01  0.50000000000E+01 0.  1.
     100001    1    1    2    0    0  0.35924012718E-02  0.15768507607E-01 -0.15441869088E-01  0.50000500000E+01  0.50000000000E+01 0. -1.
</event>
<event>
 4    1  0.4897575E-001  0.5000050E+01  0.7818608E-02  0.2136455E+00
        -11   -1    0    0    0    0  0.00000000000E+00  0.00000000000E+00  0.50000499739E+01  0.50000500000E+01  0.51100000000E-03 0. -1.
         11   -1    0    0    0    0 -0.00000000000E+00 -0.00000000000E+00 -0.50000499739E+01  0.50000500000E+01  0.51100000000E-03 0.  1.
     100001    1    1    2    0    0  0.29740769006E-02 -0.21111421636E-01  0.67427919353E-02  0.50000500000E+01  0.50000000000E+01 0.  0.
     100001    1    1    2    0    0 -0.29740769006E-02  0.21111421636E-01 -0.67427919353E-02  0.50000500000E+01  0.50000000000E+01 0.  0.
</event>
<event>
 4    1  0.4897575E-001  0.5000050E+01  0.7818608E-02  0.2136455E+00
        -11   -1    0    0    0    0  0.00000000000E+00  0.00000000000E+00  0.50000499739E+01  0.50000500000E+01  0.51100000000E-03 0.  1.
         11   -1    0    0    0    0 -0.00000000000E+00 -0.00000000000E+00 -0.50000499739E+01  0.50000500000E+01  0.51100000000E-03 0. -1.
     100001    1    1    2    0    0 -0.42670516086E-02 -0.21057777867E-01  0.61939294380E-02  0.50000500000E+01  0.50000000000E+01 0. -1.
     100001    1    1    2    0    0  0.42670516086E-02  0.21057777867E-01 -0.61939294380E-02  0.50000500000E+01  0.50000000000E+01 0.  0.
</event>
<event>
 4    1  0.4897575E-001  0.5000050E+01  0.7818608E-02  0.2136455E+00
        -11   -1    0    0    0    0  0.00000000000E+00  0.00000000000E+00  0.50000499739E+01  0.50000500000E+01  0.51100000000E-03 0.  1.
         11   -1    0    0    0    0 -0.00000000000E+00 -0.00000000000E+00 -0.50000499739E+01  0.50000500000E+01  0.51100000000E-03 0. -1.
     100001    1    1    2    0    0  0.16895609899E-01 -0.17292897379E-02  0.14544773052E-01  0.50000500000E+01  0.50000000000E+01 0.  0.
     100001    1    1    2    0    0 -0.16895609899E-01  0.17292897379E-02 -0.14544773052E-01  0.50000500000E+01  0.50000000000E+01 0.  0.
</event>
<event>
 4    1  0.4897575E-001  0.5000050E+01  0.7818608E-02  0.2136455E+00
        -11   -1    0    0    0    0  0.00000000000E+00  0.00000000000E+00  0.50000499739E+01  0.50000500000E+01  0.51100000000E-03 0.  1.
         11   -1    0    0    0    0 -0.00000000000E+00 -0.00000000000E+00 -0.50000499739E+01  0.50000500000E+01  0.51100000000E-03 0. -1.
     100001    1    1    2    0    0 -0.27970520878E-02  0.50159703778E-02 -0.21610623332E-01  0.50000500000E+01  0.50000000000E+01 0.  0.
     100001    1    1    2    0    0  0.27970520878E-02 -0.50159703778E-02  0.21610623332E-01  0.50000500000E+01  0.50000000000E+01 0.  0.
</event>
<event>
 4    1  0.4897575E-001  0.5000050E+01  0.7818608E-02  0.2136455E+00
        -11   -1    0    0    0    0  0.00000000000E+00  0.00000000000E+00  0.50000499739E+01  0.50000500000E+01  0.51100000000E-03 0.  1.
         11   -1    0    0    0    0 -0.00000000000E+00 -0.00000000000E+00 -0.50000499739E+01  0.50000500000E+01  0.51100000000E-03 0. -1.
     100001    1    1    2    0    0 -0.34797462628E-02 -0.16096947206E-01  0.15125546489E-01  0.50000500000E+01  0.50000000000E+01 0.  1.
     100001    1    1    2    0    0  0.34797462628E-02  0.16096947206E-01 -0.15125546489E-01  0.50000500000E+01  0.50000000000E+01 0.  1.
</event>
<event>
 4    1  0.4897575E-001  0.5000050E+01  0.7818608E-02  0.2136455E+00
        -11   -1    0    0    0    0  0.00000000000E+00  0.00000000000E+00  0.50000499739E+01  0.50000500000E+01  0.51100000000E-03 0.  1.
         11   -1    0    0    0    0 -0.00000000000E+00 -0.00000000000E+00 -0.50000499739E+01  0.50000500000E+01  0.51100000000E-03 0. -1.
     100001    1    1    2    0    0  0.15079963580E-01 -0.15809977658E-01 -0.47583405597E-02  0.50000500000E+01  0.50000000000E+01 0. -1.
     100001    1    1    2    0    0 -0.15079963580E-01  0.15809977658E-01  0.47583405597E-02  0.50000500000E+01  0.50000000000E+01 0.  1.
</event>
<event>
 4    1  0.4897575E-001  0.5000050E+01  0.7818608E-02  0.2136455E+00
        -11   -1    0    0    0    0  0.00000000000E+00  0.00000000000E+00  0.50000499739E+01  0.50000500000E+01  0.51100000000E-03 0.  1.
         11   -1    0    0    0    0 -0.00000000000E+00 -0.00000000000E+00 -0.50000499739E+01  0.50000500000E+01  0.51100000000E-03 0. -1.
     100001    1    1    2    0    0 -0.47426197906E-02  0.20757380177E-01  0.68294381686E-02  0.50000500000E+01  0.50000000000E+01 0.  0.
     100001    1    1    2    0    0  0.47426197906E-02 -0.20757380177E-01 -0.68294381686E-02  0.50000500000E+01  0.50000000000E+01 0.  0.
</event>
<event>
 4    1  0.4897575E-001  0.5000050E+01  0.7818608E-02  0.2136455E+00
        -11   -1    0    0    0    0  0.00000000000E+00  0.00000000000E+00  0.50000499739E+01  0.50000500000E+01  0.51100000000E-03 0.  1.
         11   -1    0    0    0    0 -0.00000000000E+00 -0.00000000000E+00 -0.50000499739E+01  0.50000500000E+01  0.51100000000E-03 0. -1.
     100001    1    1    2    0    0  0.55817437484E-02  0.18819585125E-01 -0.10708401021E-01  0.50000500000E+01  0.50000000000E+01 0. -1.
     100001    1    1    2    0    0 -0.55817437484E-02 -0.18819585125E-01  0.10708401021E-01  0.50000500000E+01  0.50000000000E+01 0.  1.
</event>
<event>
 4    1  0.4897575E-001  0.5000050E+01  0.7818608E-02  0.2136455E+00
        -11   -1    0    0    0    0  0.00000000000E+00  0.00000000000E+00  0.50000499739E+01  0.50000500000E+01  0.51100000000E-03 0.  1.
         11   -1    0    0    0    0 -0.00000000000E+00 -0.00000000000E+00 -0.50000499739E+01  0.50000500000E+01  0.51100000000E-03 0. -1.
     100001    1    1    2    0    0  0.73015444735E-02  0.84451000471E-02 -0.19374473760E-01  0.50000500000E+01  0.50000000000E+01 0. -1.
     100001    1    1    2    0    0 -0.73015444735E-02 -0.84451000471E-02  0.19374473760E-01  0.50000500000E+01  0.50000000000E+01 0.  0.
</event>
<event>
 4    1  0.4897575E-001  0.5000050E+01  0.7818608E-02  0.2136455E+00
        -11   -1    0    0    0    0  0.00000000000E+00  0.00000000000E+00  0.50000499739E+01  0.50000500000E+01  0.51100000000E-03 0.  1.
         11   -1    0    0    0    0 -0.00000000000E+00 -0.00000000000E+00 -0.50000499739E+01  0.50000500000E+01  0.51100000000E-03 0. -1.
     100001    1    1    2    0    0  0.20024557446E-01  0.19380284444E-02  0.97603096691E-02  0.50000500000E+01  0.50000000000E+01 0.  1.
     100001    1    1    2    0    0 -0.20024557446E-01 -0.19380284444E-02 -0.97603096691E-02  0.50000500000E+01  0.50000000000E+01 0. -1.
</event>
<event>
 4    1  0.4897575E-001  0.5000050E+01  0.7818608E-02  0.2136455E+00
        -11   -1    0    0    0    0  0.00000000000E+00  0.00000000000E+00  0.50000499739E+01  0.50000500000E+01  0.51100000000E-03 0. -1.
         11   -1    0    0    0    0 -0.00000000000E+00 -0.00000000000E+00 -0.50000499739E+01  0.50000500000E+01  0.51100000000E-03 0.  1.
     100001    1    1    2    0    0 -0.19009186340E-02 -0.21117374182E-01  0.71025006864E-02  0.50000500000E+01  0.50000000000E+01 0.  1.
     100001    1    1    2    0    0  0.19009186340E-02  0.21117374182E-01 -0.71025006864E-02  0.50000500000E+01  0.50000000000E+01 0.  0.
</event>
<event>
 4    1  0.4897575E-001  0.5000050E+01  0.7818608E-02  0.2136455E+00
        -11   -1    0    0    0    0  0.00000000000E+00  0.00000000000E+00  0.50000499739E+01  0.50000500000E+01  0.51100000000E-03 0.  1.
         11   -1    0    0    0    0 -0.00000000000E+00 -0.00000000000E+00 -0.50000499739E+01  0.50000500000E+01  0.51100000000E-03 0. -1.
     100001    1    1    2    0    0 -0.14919088742E-01 -0.52979059132E-02  0.15790993763E-01  0.50000500000E+01  0.50000000000E+01 0.  0.
     100001    1    1    2    0    0  0.14919088742E-01  0.52979059132E-02 -0.15790993763E-01  0.50000500000E+01  0.50000000000E+01 0.  0.
</event>
<event>
 4    1  0.4897575E-001  0.5000050E+01  0.7818608E-02  0.2136455E+00
        -11   -1    0    0    0    0  0.00000000000E+00  0.00000000000E+00  0.50000499739E+01  0.50000500000E+01  0.51100000000E-03 0.  1.
         11   -1    0    0    0    0 -0.00000000000E+00 -0.00000000000E+00 -0.50000499739E+01  0.50000500000E+01  0.51100000000E-03 0. -1.
     100001    1    1    2    0    0  0.10337719978E-01  0.10598737092E-01 -0.16757112452E-01  0.50000500000E+01  0.50000000000E+01 0.  1.
     100001    1    1    2    0    0 -0.10337719978E-01 -0.10598737092E-01  0.16757112452E-01  0.50000500000E+01  0.50000000000E+01 0. -1.
</event>
<event>
 4    1  0.4897575E-001  0.5000050E+01  0.7818608E-02  0.2136455E+00
        -11   -1    0    0    0    0  0.00000000000E+00  0.00000000000E+00  0.50000499739E+01  0.50000500000E+01  0.51100000000E-03 0.  1.
         11   -1    0    0    0    0 -0.00000000000E+00 -0.00000000000E+00 -0.50000499739E+01  0.50000500000E+01  0.51100000000E-03 0. -1.
     100001    1    1    2    0    0  0.88100923546E-02  0.89979912796E-02 -0.18477578998E-01  0.50000500000E+01  0.50000000000E+01 0. -1.
     100001    1    1    2    0    0 -0.88100923546E-02 -0.89979912796E-02  0.18477578998E-01  0.50000500000E+01  0.50000000000E+01 0.  1.
</event>
<event>
 4    1  0.4897575E-001  0.5000050E+01  0.7818608E-02  0.2136455E+00
        -11   -1    0    0    0    0  0.00000000000E+00  0.00000000000E+00  0.50000499739E+01  0.50000500000E+01  0.51100000000E-03 0.  1.
         11   -1    0    0    0    0 -0.00000000000E+00 -0.00000000000E+00 -0.50000499739E+01  0.50000500000E+01  0.51100000000E-03 0. -1.
     100001    1    1    2    0    0  0.13760742061E-01  0.11680962092E-01 -0.13198469704E-01  0.50000500000E+01  0.50000000000E+01 0. -1.
     100001    1    1    2    0    0 -0.13760742061E-01 -0.11680962092E-01  0.13198469704E-01  0.50000500000E+01  0.50000000000E+01 0. -1.
</event>
<event>
 4    1  0.4897575E-001  0.5000050E+01  0.7818608E-02  0.2136455E+00
        -11   -1    0    0    0    0  0.00000000000E+00  0.00000000000E+00  0.50000499739E+01  0.50000500000E+01  0.51100000000E-03 0. -1.
         11   -1    0    0    0    0 -0.00000000000E+00 -0.00000000000E+00 -0.50000499739E+01  0.50000500000E+01  0.51100000000E-03 0.  1.
     100001    1    1    2    0    0  0.54581752011E-02 -0.21506647595E-01  0.27703668899E-02  0.50000500000E+01  0.50000000000E+01 0.  0.
     100001    1    1    2    0    0 -0.54581752011E-02  0.21506647595E-01 -0.27703668899E-02  0.50000500000E+01  0.50000000000E+01 0. -1.
</event>
<event>
 4    1  0.4897575E-001  0.5000050E+01  0.7818608E-02  0.2136455E+00
        -11   -1    0    0    0    0  0.00000000000E+00  0.00000000000E+00  0.50000499739E+01  0.50000500000E+01  0.51100000000E-03 0. -1.
         11   -1    0    0    0    0 -0.00000000000E+00 -0.00000000000E+00 -0.50000499739E+01  0.50000500000E+01  0.51100000000E-03 0.  1.
     100001    1    1    2    0    0  0.19698558868E-02 -0.14025087472E-02 -0.22229600469E-01  0.50000500000E+01  0.50000000000E+01 0.  0.
     100001    1    1    2    0    0 -0.19698558868E-02  0.14025087472E-02  0.22229600469E-01  0.50000500000E+01  0.50000000000E+01 0. -1.
</event>
<event>
 4    1  0.4897575E-001  0.5000050E+01  0.7818608E-02  0.2136455E+00
        -11   -1    0    0    0    0  0.00000000000E+00  0.00000000000E+00  0.50000499739E+01  0.50000500000E+01  0.51100000000E-03 0.  1.
         11   -1    0    0    0    0 -0.00000000000E+00 -0.00000000000E+00 -0.50000499739E+01  0.50000500000E+01  0.51100000000E-03 0. -1.
     100001    1    1    2    0    0 -0.71347004696E-02  0.91575441558E-02  0.19111199184E-01  0.50000500000E+01  0.50000000000E+01 0.  0.
     100001    1    1    2    0    0  0.71347004696E-02 -0.91575441558E-02 -0.19111199184E-01  0.50000500000E+01  0.50000000000E+01 0.  0.
</event>
<event>
 4    1  0.4897575E-001  0.5000050E+01  0.7818608E-02  0.2136455E+00
        -11   -1    0    0    0    0  0.00000000000E+00  0.00000000000E+00  0.50000499739E+01  0.50000500000E+01  0.51100000000E-03 0.  1.
         11   -1    0    0    0    0 -0.00000000000E+00 -0.00000000000E+00 -0.50000499739E+01  0.50000500000E+01  0.51100000000E-03 0. -1.
     100001    1    1    2    0    0 -0.14884982430E-01 -0.44100650970E-02  0.16093201170E-01  0.50000500000E+01  0.50000000000E+01 0.  1.
     100001    1    1    2    0    0  0.14884982430E-01  0.44100650970E-02 -0.16093201170E-01  0.50000500000E+01  0.50000000000E+01 0.  1.
</event>
<event>
 4    1  0.4897575E-001  0.5000050E+01  0.7818608E-02  0.2136455E+00
        -11   -1    0    0    0    0  0.00000000000E+00  0.00000000000E+00  0.50000499739E+01  0.50000500000E+01  0.51100000000E-03 0.  1.
         11   -1    0    0    0    0 -0.00000000000E+00 -0.00000000000E+00 -0.50000499739E+01  0.50000500000E+01  0.51100000000E-03 0. -1.
     100001    1    1    2    0    0 -0.19485515906E-01  0.46916704829E-02 -0.99149078631E-02  0.50000500000E+01  0.50000000000E+01 0.  1.
     100001    1    1    2    0    0  0.19485515906E-01 -0.46916704829E-02  0.99149078631E-02  0.50000500000E+01  0.50000000000E+01 0.  0.
</event>
<event>
 4    1  0.4897575E-001  0.5000050E+01  0.7818608E-02  0.2136455E+00
        -11   -1    0    0    0    0  0.00000000000E+00  0.00000000000E+00  0.50000499739E+01  0.50000500000E+01  0.51100000000E-03 0. -1.
         11   -1    0    0    0    0 -0.00000000000E+00 -0.00000000000E+00 -0.50000499739E+01  0.50000500000E+01  0.51100000000E-03 0.  1.
     100001    1    1    2    0    0 -0.19451991241E-01  0.21086753705E-02  0.10824787524E-01  0.50000500000E+01  0.50000000000E+01 0.  0.
     100001    1    1    2    0    0  0.19451991241E-01 -0.21086753705E-02 -0.10824787524E-01  0.50000500000E+01  0.50000000000E+01 0. -1.
</event>
<event>
 4    1  0.4897575E-001  0.5000050E+01  0.7818608E-02  0.2136455E+00
        -11   -1    0    0    0    0  0.00000000000E+00  0.00000000000E+00  0.50000499739E+01  0.50000500000E+01  0.51100000000E-03 0. -1.
         11   -1    0    0    0    0 -0.00000000000E+00 -0.00000000000E+00 -0.50000499739E+01  0.50000500000E+01  0.51100000000E-03 0.  1.
     100001    1    1    2    0    0  0.21067975686E-01  0.37955038461E-02 -0.64604218942E-02  0.50000500000E+01  0.50000000000E+01 0.  0.
     100001    1    1    2    0    0 -0.21067975686E-01 -0.37955038461E-02  0.64604218942E-02  0.50000500000E+01  0.50000000000E+01 0. -1.
</event>
<event>
 4    1  0.4897575E-001  0.5000050E+01  0.7818608E-02  0.2136455E+00
        -11   -1    0    0    0    0  0.00000000000E+00  0.00000000000E+00  0.50000499739E+01  0.50000500000E+01  0.51100000000E-03 0.  1.
         11   -1    0    0    0    0 -0.00000000000E+00 -0.00000000000E+00 -0.50000499739E+01  0.50000500000E+01  0.51100000000E-03 0. -1.
     100001    1    1    2    0    0  0.18768696411E-01  0.35784677507E-02 -0.11616070919E-01  0.50000500000E+01  0.50000000000E+01 0.  1.
     100001    1    1    2    0    0 -0.18768696411E-01 -0.35784677507E-02  0.11616070919E-01  0.50000500000E+01  0.50000000000E+01 0.  0.
</event>
<event>
 4    1  0.4897575E-001  0.5000050E+01  0.7818608E-02  0.2136455E+00
        -11   -1    0    0    0    0  0.00000000000E+00  0.00000000000E+00  0.50000499739E+01  0.50000500000E+01  0.51100000000E-03 0. -1.
         11   -1    0    0    0    0 -0.00000000000E+00 -0.00000000000E+00 -0.50000499739E+01  0.50000500000E+01  0.51100000000E-03 0.  1.
     100001    1    1    2    0    0 -0.65845422877E-02 -0.45209260719E-02  0.20885581876E-01  0.50000500000E+01  0.50000000000E+01 0.  0.
     100001    1    1    2    0    0  0.65845422877E-02  0.45209260719E-02 -0.20885581876E-01  0.50000500000E+01  0.50000000000E+01 0.  1.
</event>
<event>
 4    1  0.4897575E-001  0.5000050E+01  0.7818608E-02  0.2136455E+00
        -11   -1    0    0    0    0  0.00000000000E+00  0.00000000000E+00  0.50000499739E+01  0.50000500000E+01  0.51100000000E-03 0.  1.
         11   -1    0    0    0    0 -0.00000000000E+00 -0.00000000000E+00 -0.50000499739E+01  0.50000500000E+01  0.51100000000E-03 0. -1.
     100001    1    1    2    0    0 -0.20344239077E-02  0.51895974618E-02 -0.21654830813E-01  0.50000500000E+01  0.50000000000E+01 0.  0.
     100001    1    1    2    0    0  0.20344239077E-02 -0.51895974618E-02  0.21654830813E-01  0.50000500000E+01  0.50000000000E+01 0.  0.
</event>
<event>
 4    1  0.4897575E-001  0.5000050E+01  0.7818608E-02  0.2136455E+00
        -11   -1    0    0    0    0  0.00000000000E+00  0.00000000000E+00  0.50000499739E+01  0.50000500000E+01  0.51100000000E-03 0.  1.
         11   -1    0    0    0    0 -0.00000000000E+00 -0.00000000000E+00 -0.50000499739E+01  0.50000500000E+01  0.51100000000E-03 0. -1.
     100001    1    1    2    0    0  0.84296070894E-02  0.13926043243E-01 -0.15330021002E-01  0.50000500000E+01  0.50000000000E+01 0. -1.
     100001    1    1    2    0    0 -0.84296070894E-02 -0.13926043243E-01  0.15330021002E-01  0.50000500000E+01  0.50000000000E+01 0.  1.
</event>
<event>
 4    1  0.4897575E-001  0.5000050E+01  0.7818608E-02  0.2136455E+00
        -11   -1    0    0    0    0  0.00000000000E+00  0.00000000000E+00  0.50000499739E+01  0.50000500000E+01  0.51100000000E-03 0.  1.
         11   -1    0    0    0    0 -0.00000000000E+00 -0.00000000000E+00 -0.50000499739E+01  0.50000500000E+01  0.51100000000E-03 0. -1.
     100001    1    1    2    0    0  0.10500505744E-01  0.95608452051E-02  0.17272293365E-01  0.50000500000E+01  0.50000000000E+01 0.  1.
     100001    1    1    2    0    0 -0.10500505744E-01 -0.95608452051E-02 -0.17272293365E-01  0.50000500000E+01  0.50000000000E+01 0. -1.
</event>
<event>
 4    1  0.4897575E-001  0.5000050E+01  0.7818608E-02  0.2136455E+00
        -11   -1    0    0    0    0  0.00000000000E+00  0.00000000000E+00  0.50000499739E+01  0.50000500000E+01  0.51100000000E-03 0. -1.
         11   -1    0    0    0    0 -0.00000000000E+00 -0.00000000000E+00 -0.50000499739E+01  0.50000500000E+01  0.51100000000E-03 0.  1.
     100001    1    1    2    0    0  0.15444426430E-01  0.10838107840E-01  0.12000317107E-01  0.50000500000E+01  0.50000000000E+01 0. -1.
     100001    1    1    2    0    0 -0.15444426430E-01 -0.10838107840E-01 -0.12000317107E-01  0.50000500000E+01  0.50000000000E+01 0.  1.
</event>
<event>
 4    1  0.4897575E-001  0.5000050E+01  0.7818608E-02  0.2136455E+00
        -11   -1    0    0    0    0  0.00000000000E+00  0.00000000000E+00  0.50000499739E+01  0.50000500000E+01  0.51100000000E-03 0. -1.
         11   -1    0    0    0    0 -0.00000000000E+00 -0.00000000000E+00 -0.50000499739E+01  0.50000500000E+01  0.51100000000E-03 0.  1.
     100001    1    1    2    0    0 -0.20724053148E-01 -0.80975738374E-02 -0.22238298235E-02  0.50000500000E+01  0.50000000000E+01 0. -1.
     100001    1    1    2    0    0  0.20724053148E-01  0.80975738374E-02  0.22238298235E-02  0.50000500000E+01  0.50000000000E+01 0.  0.
</event>
<event>
 4    1  0.4897575E-001  0.5000050E+01  0.7818608E-02  0.2136455E+00
        -11   -1    0    0    0    0  0.00000000000E+00  0.00000000000E+00  0.50000499739E+01  0.50000500000E+01  0.51100000000E-03 0. -1.
         11   -1    0    0    0    0 -0.00000000000E+00 -0.00000000000E+00 -0.50000499739E+01  0.50000500000E+01  0.51100000000E-03 0.  1.
     100001    1    1    2    0    0 -0.24247101132E-02 -0.18084131880E-01 -0.12926231276E-01  0.50000500000E+01  0.50000000000E+01 0. -1.
     100001    1    1    2    0    0  0.24247101132E-02  0.18084131880E-01  0.12926231276E-01  0.50000500000E+01  0.50000000000E+01 0.  0.
</event>
<event>
 4    1  0.4897575E-001  0.5000050E+01  0.7818608E-02  0.2136455E+00
        -11   -1    0    0    0    0  0.00000000000E+00  0.00000000000E+00  0.50000499739E+01  0.50000500000E+01  0.51100000000E-03 0. -1.
         11   -1    0    0    0    0 -0.00000000000E+00 -0.00000000000E+00 -0.50000499739E+01  0.50000500000E+01  0.51100000000E-03 0.  1.
     100001    1    1    2    0    0  0.18999023898E-01  0.10181726225E-01  0.59474399543E-02  0.50000500000E+01  0.50000000000E+01 0. -1.
     100001    1    1    2    0    0 -0.18999023898E-01 -0.10181726225E-01 -0.59474399543E-02  0.50000500000E+01  0.50000000000E+01 0.  1.
</event>
<event>
 4    1  0.4897575E-001  0.5000050E+01  0.7818608E-02  0.2136455E+00
        -11   -1    0    0    0    0  0.00000000000E+00  0.00000000000E+00  0.50000499739E+01  0.50000500000E+01  0.51100000000E-03 0. -1.
         11   -1    0    0    0    0 -0.00000000000E+00 -0.00000000000E+00 -0.50000499739E+01  0.50000500000E+01  0.51100000000E-03 0.  1.
     100001    1    1    2    0    0  0.10774011590E-01 -0.19583282634E-01  0.64669585101E-03  0.50000500000E+01  0.50000000000E+01 0.  0.
     100001    1    1    2    0    0 -0.10774011590E-01  0.19583282634E-01 -0.64669585101E-03  0.50000500000E+01  0.50000000000E+01 0. -1.
</event>
<event>
 4    1  0.4897575E-001  0.5000050E+01  0.7818608E-02  0.2136455E+00
        -11   -1    0    0    0    0  0.00000000000E+00  0.00000000000E+00  0.50000499739E+01  0.50000500000E+01  0.51100000000E-03 0. -1.
         11   -1    0    0    0    0 -0.00000000000E+00 -0.00000000000E+00 -0.50000499739E+01  0.50000500000E+01  0.51100000000E-03 0.  1.
     100001    1    1    2    0    0 -0.13112371655E-02  0.18473782317E-01  0.12530064804E-01  0.50000500000E+01  0.50000000000E+01 0.  1.
     100001    1    1    2    0    0  0.13112371655E-02 -0.18473782317E-01 -0.12530064804E-01  0.50000500000E+01  0.50000000000E+01 0.  0.
</event>
<event>
 4    1  0.4897575E-001  0.5000050E+01  0.7818608E-02  0.2136455E+00
        -11   -1    0    0    0    0  0.00000000000E+00  0.00000000000E+00  0.50000499739E+01  0.50000500000E+01  0.51100000000E-03 0. -1.
         11   -1    0    0    0    0 -0.00000000000E+00 -0.00000000000E+00 -0.50000499739E+01  0.50000500000E+01  0.51100000000E-03 0.  1.
     100001    1    1    2    0    0 -0.85618446052E-02  0.10722921851E-01 -0.17655488210E-01  0.50000500000E+01  0.50000000000E+01 0.  1.
     100001    1    1    2    0    0  0.85618446052E-02 -0.10722921851E-01  0.17655488210E-01  0.50000500000E+01  0.50000000000E+01 0.  1.
</event>
<event>
 4    1  0.4897575E-001  0.5000050E+01  0.7818608E-02  0.2136455E+00
        -11   -1    0    0    0    0  0.00000000000E+00  0.00000000000E+00  0.50000499739E+01  0.50000500000E+01  0.51100000000E-03 0.  1.
         11   -1    0    0    0    0 -0.00000000000E+00 -0.00000000000E+00 -0.50000499739E+01  0.50000500000E+01  0.51100000000E-03 0. -1.
     100001    1    1    2    0    0  0.12453375312E-01  0.16092692375E-01 -0.92704474249E-02  0.50000500000E+01  0.50000000000E+01 0.  0.
     100001    1    1    2    0    0 -0.12453375312E-01 -0.16092692375E-01  0.92704474249E-02  0.50000500000E+01  0.50000000000E+01 0. -1.
</event>
<event>
 4    1  0.4897575E-001  0.5000050E+01  0.7818608E-02  0.2136455E+00
        -11   -1    0    0    0    0  0.00000000000E+00  0.00000000000E+00  0.50000499739E+01  0.50000500000E+01  0.51100000000E-03 0.  1.
         11   -1    0    0    0    0 -0.00000000000E+00 -0.00000000000E+00 -0.50000499739E+01  0.50000500000E+01  0.51100000000E-03 0. -1.
     100001    1    1    2    0    0 -0.40217825624E-02  0.40305465032E-02 -0.21623655100E-01  0.50000500000E+01  0.50000000000E+01 0. -1.
     100001    1    1    2    0    0  0.40217825624E-02 -0.40305465032E-02  0.21623655100E-01  0.50000500000E+01  0.50000000000E+01 0.  0.
</event>
<event>
 4    1  0.4897575E-001  0.5000050E+01  0.7818608E-02  0.2136455E+00
        -11   -1    0    0    0    0  0.00000000000E+00  0.00000000000E+00  0.50000499739E+01  0.50000500000E+01  0.51100000000E-03 0. -1.
         11   -1    0    0    0    0 -0.00000000000E+00 -0.00000000000E+00 -0.50000499739E+01  0.50000500000E+01  0.51100000000E-03 0.  1.
     100001    1    1    2    0    0 -0.75942306476E-02  0.10268662898E-01 -0.18354419717E-01  0.50000500000E+01  0.50000000000E+01 0.  1.
     100001    1    1    2    0    0  0.75942306476E-02 -0.10268662898E-01  0.18354419717E-01  0.50000500000E+01  0.50000000000E+01 0.  1.
</event>
<event>
 4    1  0.4897575E-001  0.5000050E+01  0.7818608E-02  0.2136455E+00
        -11   -1    0    0    0    0  0.00000000000E+00  0.00000000000E+00  0.50000499739E+01  0.50000500000E+01  0.51100000000E-03 0. -1.
         11   -1    0    0    0    0 -0.00000000000E+00 -0.00000000000E+00 -0.50000499739E+01  0.50000500000E+01  0.51100000000E-03 0.  1.
     100001    1    1    2    0    0  0.36730653225E-02  0.66919048851E-02  0.21017361874E-01  0.50000500000E+01  0.50000000000E+01 0. -1.
     100001    1    1    2    0    0 -0.36730653225E-02 -0.66919048851E-02 -0.21017361874E-01  0.50000500000E+01  0.50000000000E+01 0.  0.
</event>
<event>
 4    1  0.4897575E-001  0.5000050E+01  0.7818608E-02  0.2136455E+00
        -11   -1    0    0    0    0  0.00000000000E+00  0.00000000000E+00  0.50000499739E+01  0.50000500000E+01  0.51100000000E-03 0. -1.
         11   -1    0    0    0    0 -0.00000000000E+00 -0.00000000000E+00 -0.50000499739E+01  0.50000500000E+01  0.51100000000E-03 0.  1.
     100001    1    1    2    0    0 -0.81299408878E-02  0.20637717981E-01  0.28268635819E-02  0.50000500000E+01  0.50000000000E+01 0.  1.
     100001    1    1    2    0    0  0.81299408878E-02 -0.20637717981E-01 -0.28268635819E-02  0.50000500000E+01  0.50000000000E+01 0. -1.
</event>
<event>
 4    1  0.4897575E-001  0.5000050E+01  0.7818608E-02  0.2136455E+00
        -11   -1    0    0    0    0  0.00000000000E+00  0.00000000000E+00  0.50000499739E+01  0.50000500000E+01  0.51100000000E-03 0. -1.
         11   -1    0    0    0    0 -0.00000000000E+00 -0.00000000000E+00 -0.50000499739E+01  0.50000500000E+01  0.51100000000E-03 0.  1.
     100001    1    1    2    0    0 -0.71080163323E-02  0.19247888815E-01 -0.88880470277E-02  0.50000500000E+01  0.50000000000E+01 0.  1.
     100001    1    1    2    0    0  0.71080163323E-02 -0.19247888815E-01  0.88880470277E-02  0.50000500000E+01  0.50000000000E+01 0. -1.
</event>
<event>
 4    1  0.4897575E-001  0.5000050E+01  0.7818608E-02  0.2136455E+00
        -11   -1    0    0    0    0  0.00000000000E+00  0.00000000000E+00  0.50000499739E+01  0.50000500000E+01  0.51100000000E-03 0.  1.
         11   -1    0    0    0    0 -0.00000000000E+00 -0.00000000000E+00 -0.50000499739E+01  0.50000500000E+01  0.51100000000E-03 0. -1.
     100001    1    1    2    0    0 -0.11437169797E-01  0.12717462298E-01 -0.14403464852E-01  0.50000500000E+01  0.50000000000E+01 0. -1.
     100001    1    1    2    0    0  0.11437169797E-01 -0.12717462298E-01  0.14403464852E-01  0.50000500000E+01  0.50000000000E+01 0.  1.
</event>
<event>
 4    1  0.4897575E-001  0.5000050E+01  0.7818608E-02  0.2136455E+00
        -11   -1    0    0    0    0  0.00000000000E+00  0.00000000000E+00  0.50000499739E+01  0.50000500000E+01  0.51100000000E-03 0.  1.
         11   -1    0    0    0    0 -0.00000000000E+00 -0.00000000000E+00 -0.50000499739E+01  0.50000500000E+01  0.51100000000E-03 0. -1.
     100001    1    1    2    0    0  0.80232017588E-02 -0.20593400286E-01 -0.33974399459E-02  0.50000500000E+01  0.50000000000E+01 0.  1.
     100001    1    1    2    0    0 -0.80232017588E-02  0.20593400286E-01  0.33974399459E-02  0.50000500000E+01  0.50000000000E+01 0.  0.
</event>
<event>
 4    1  0.4897575E-001  0.5000050E+01  0.7818608E-02  0.2136455E+00
        -11   -1    0    0    0    0  0.00000000000E+00  0.00000000000E+00  0.50000499739E+01  0.50000500000E+01  0.51100000000E-03 0. -1.
         11   -1    0    0    0    0 -0.00000000000E+00 -0.00000000000E+00 -0.50000499739E+01  0.50000500000E+01  0.51100000000E-03 0.  1.
     100001    1    1    2    0    0  0.17322916370E-01  0.14048870353E-01 -0.15963427646E-02  0.50000500000E+01  0.50000000000E+01 0.  0.
     100001    1    1    2    0    0 -0.17322916370E-01 -0.14048870353E-01  0.15963427646E-02  0.50000500000E+01  0.50000000000E+01 0.  1.
</event>
<event>
 4    1  0.4897575E-001  0.5000050E+01  0.7818608E-02  0.2136455E+00
        -11   -1    0    0    0    0  0.00000000000E+00  0.00000000000E+00  0.50000499739E+01  0.50000500000E+01  0.51100000000E-03 0.  1.
         11   -1    0    0    0    0 -0.00000000000E+00 -0.00000000000E+00 -0.50000499739E+01  0.50000500000E+01  0.51100000000E-03 0. -1.
     100001    1    1    2    0    0  0.10035466948E-01 -0.19847564664E-01 -0.23164800978E-02  0.50000500000E+01  0.50000000000E+01 0.  0.
     100001    1    1    2    0    0 -0.10035466948E-01  0.19847564664E-01  0.23164800978E-02  0.50000500000E+01  0.50000000000E+01 0. -1.
</event>
<event>
 4    1  0.4897575E-001  0.5000050E+01  0.7818608E-02  0.2136455E+00
        -11   -1    0    0    0    0  0.00000000000E+00  0.00000000000E+00  0.50000499739E+01  0.50000500000E+01  0.51100000000E-03 0. -1.
         11   -1    0    0    0    0 -0.00000000000E+00 -0.00000000000E+00 -0.50000499739E+01  0.50000500000E+01  0.51100000000E-03 0.  1.
     100001    1    1    2    0    0  0.21469902971E-01 -0.54476864912E-02 -0.30607970029E-02  0.50000500000E+01  0.50000000000E+01 0. -1.
     100001    1    1    2    0    0 -0.21469902971E-01  0.54476864912E-02  0.30607970029E-02  0.50000500000E+01  0.50000000000E+01 0.  1.
</event>
<event>
 4    1  0.4897575E-001  0.5000050E+01  0.7818608E-02  0.2136455E+00
        -11   -1    0    0    0    0  0.00000000000E+00  0.00000000000E+00  0.50000499739E+01  0.50000500000E+01  0.51100000000E-03 0. -1.
         11   -1    0    0    0    0 -0.00000000000E+00 -0.00000000000E+00 -0.50000499739E+01  0.50000500000E+01  0.51100000000E-03 0.  1.
     100001    1    1    2    0    0 -0.10221441159E-01 -0.63298795390E-03 -0.19877725395E-01  0.50000500000E+01  0.50000000000E+01 0.  1.
     100001    1    1    2    0    0  0.10221441159E-01  0.63298795390E-03  0.19877725395E-01  0.50000500000E+01  0.50000000000E+01 0. -1.
</event>
<event>
 4    1  0.4897575E-001  0.5000050E+01  0.7818608E-02  0.2136455E+00
        -11   -1    0    0    0    0  0.00000000000E+00  0.00000000000E+00  0.50000499739E+01  0.50000500000E+01  0.51100000000E-03 0.  1.
         11   -1    0    0    0    0 -0.00000000000E+00 -0.00000000000E+00 -0.50000499739E+01  0.50000500000E+01  0.51100000000E-03 0. -1.
     100001    1    1    2    0    0 -0.17169718384E-01 -0.77199626399E-02 -0.12066708228E-01  0.50000500000E+01  0.50000000000E+01 0.  0.
     100001    1    1    2    0    0  0.17169718384E-01  0.77199626399E-02  0.12066708228E-01  0.50000500000E+01  0.50000000000E+01 0. -1.
</event>
<event>
 4    1  0.4897575E-001  0.5000050E+01  0.7818608E-02  0.2136455E+00
        -11   -1    0    0    0    0  0.00000000000E+00  0.00000000000E+00  0.50000499739E+01  0.50000500000E+01  0.51100000000E-03 0.  1.
         11   -1    0    0    0    0 -0.00000000000E+00 -0.00000000000E+00 -0.50000499739E+01  0.50000500000E+01  0.51100000000E-03 0. -1.
     100001    1    1    2    0    0 -0.12977768045E-01  0.30077750044E-02 -0.17959212847E-01  0.50000500000E+01  0.50000000000E+01 0.  0.
     100001    1    1    2    0    0  0.12977768045E-01 -0.30077750044E-02  0.17959212847E-01  0.50000500000E+01  0.50000000000E+01 0.  1.
</event>
<event>
 4    1  0.4897575E-001  0.5000050E+01  0.7818608E-02  0.2136455E+00
        -11   -1    0    0    0    0  0.00000000000E+00  0.00000000000E+00  0.50000499739E+01  0.50000500000E+01  0.51100000000E-03 0.  1.
         11   -1    0    0    0    0 -0.00000000000E+00 -0.00000000000E+00 -0.50000499739E+01  0.50000500000E+01  0.51100000000E-03 0. -1.
     100001    1    1    2    0    0  0.74371760445E-02  0.20951699765E-01 -0.23910645010E-02  0.50000500000E+01  0.50000000000E+01 0.  0.
     100001    1    1    2    0    0 -0.74371760445E-02 -0.20951699765E-01  0.23910645010E-02  0.50000500000E+01  0.50000000000E+01 0.  1.
</event>
<event>
 4    1  0.4897575E-001  0.5000050E+01  0.7818608E-02  0.2136455E+00
        -11   -1    0    0    0    0  0.00000000000E+00  0.00000000000E+00  0.50000499739E+01  0.50000500000E+01  0.51100000000E-03 0.  1.
         11   -1    0    0    0    0 -0.00000000000E+00 -0.00000000000E+00 -0.50000499739E+01  0.50000500000E+01  0.51100000000E-03 0. -1.
     100001    1    1    2    0    0 -0.17847591295E-01 -0.12974340126E-01  0.36238768267E-02  0.50000500000E+01  0.50000000000E+01 0.  0.
     100001    1    1    2    0    0  0.17847591295E-01  0.12974340126E-01 -0.36238768267E-02  0.50000500000E+01  0.50000000000E+01 0. -1.
</event>
<event>
 4    1  0.4897575E-001  0.5000050E+01  0.7818608E-02  0.2136455E+00
        -11   -1    0    0    0    0  0.00000000000E+00  0.00000000000E+00  0.50000499739E+01  0.50000500000E+01  0.51100000000E-03 0. -1.
         11   -1    0    0    0    0 -0.00000000000E+00 -0.00000000000E+00 -0.50000499739E+01  0.50000500000E+01  0.51100000000E-03 0.  1.
     100001    1    1    2    0    0 -0.72477584185E-02 -0.20926590049E-01  0.30903603050E-02  0.50000500000E+01  0.50000000000E+01 0.  1.
     100001    1    1    2    0    0  0.72477584185E-02  0.20926590049E-01 -0.30903603050E-02  0.50000500000E+01  0.50000000000E+01 0. -1.
</event>
<event>
 4    1  0.4897575E-001  0.5000050E+01  0.7818608E-02  0.2136455E+00
        -11   -1    0    0    0    0  0.00000000000E+00  0.00000000000E+00  0.50000499739E+01  0.50000500000E+01  0.51100000000E-03 0.  1.
         11   -1    0    0    0    0 -0.00000000000E+00 -0.00000000000E+00 -0.50000499739E+01  0.50000500000E+01  0.51100000000E-03 0. -1.
     100001    1    1    2    0    0  0.21377700482E-01 -0.10049280137E-03 -0.65563956028E-02  0.50000500000E+01  0.50000000000E+01 0.  0.
     100001    1    1    2    0    0 -0.21377700482E-01  0.10049280137E-03  0.65563956028E-02  0.50000500000E+01  0.50000000000E+01 0. -1.
</event>
<event>
 4    1  0.4897575E-001  0.5000050E+01  0.7818608E-02  0.2136455E+00
        -11   -1    0    0    0    0  0.00000000000E+00  0.00000000000E+00  0.50000499739E+01  0.50000500000E+01  0.51100000000E-03 0. -1.
         11   -1    0    0    0    0 -0.00000000000E+00 -0.00000000000E+00 -0.50000499739E+01  0.50000500000E+01  0.51100000000E-03 0.  1.
     100001    1    1    2    0    0 -0.20862928348E-01 -0.97866150135E-03 -0.79864223777E-02  0.50000500000E+01  0.50000000000E+01 0.  0.
     100001    1    1    2    0    0  0.20862928348E-01  0.97866150135E-03  0.79864223777E-02  0.50000500000E+01  0.50000000000E+01 0.  0.
</event>
<event>
 4    1  0.4897575E-001  0.5000050E+01  0.7818608E-02  0.2136455E+00
        -11   -1    0    0    0    0  0.00000000000E+00  0.00000000000E+00  0.50000499739E+01  0.50000500000E+01  0.51100000000E-03 0. -1.
         11   -1    0    0    0    0 -0.00000000000E+00 -0.00000000000E+00 -0.50000499739E+01  0.50000500000E+01  0.51100000000E-03 0.  1.
     100001    1    1    2    0    0  0.21010088338E-01  0.26577763243E-02  0.71773890120E-02  0.50000500000E+01  0.50000000000E+01 0.  1.
     100001    1    1    2    0    0 -0.21010088338E-01 -0.26577763243E-02 -0.71773890120E-02  0.50000500000E+01  0.50000000000E+01 0.  0.
</event>
<event>
 4    1  0.4897575E-001  0.5000050E+01  0.7818608E-02  0.2136455E+00
        -11   -1    0    0    0    0  0.00000000000E+00  0.00000000000E+00  0.50000499739E+01  0.50000500000E+01  0.51100000000E-03 0. -1.
         11   -1    0    0    0    0 -0.00000000000E+00 -0.00000000000E+00 -0.50000499739E+01  0.50000500000E+01  0.51100000000E-03 0.  1.
     100001    1    1    2    0    0  0.10422824588E-01 -0.19471560506E-01  0.34965066943E-02  0.50000500000E+01  0.50000000000E+01 0.  0.
     100001    1    1    2    0    0 -0.10422824588E-01  0.19471560506E-01 -0.34965066943E-02  0.50000500000E+01  0.50000000000E+01 0. -1.
</event>
<event>
 4    1  0.4897575E-001  0.5000050E+01  0.7818608E-02  0.2136455E+00
        -11   -1    0    0    0    0  0.00000000000E+00  0.00000000000E+00  0.50000499739E+01  0.50000500000E+01  0.51100000000E-03 0. -1.
         11   -1    0    0    0    0 -0.00000000000E+00 -0.00000000000E+00 -0.50000499739E+01  0.50000500000E+01  0.51100000000E-03 0.  1.
     100001    1    1    2    0    0 -0.71349342483E-02  0.14558085775E-01 -0.15399914020E-01  0.50000500000E+01  0.50000000000E+01 0.  1.
     100001    1    1    2    0    0  0.71349342483E-02 -0.14558085775E-01  0.15399914020E-01  0.50000500000E+01  0.50000000000E+01 0. -1.
</event>
<event>
 4    1  0.4897575E-001  0.5000050E+01  0.7818608E-02  0.2136455E+00
        -11   -1    0    0    0    0  0.00000000000E+00  0.00000000000E+00  0.50000499739E+01  0.50000500000E+01  0.51100000000E-03 0.  1.
         11   -1    0    0    0    0 -0.00000000000E+00 -0.00000000000E+00 -0.50000499739E+01  0.50000500000E+01  0.51100000000E-03 0. -1.
     100001    1    1    2    0    0  0.22156080954E-01  0.29306946645E-02  0.72222264248E-03  0.50000500000E+01  0.50000000000E+01 0.  1.
     100001    1    1    2    0    0 -0.22156080954E-01 -0.29306946645E-02 -0.72222264248E-03  0.50000500000E+01  0.50000000000E+01 0. -1.
</event>
<event>
 4    1  0.4897575E-001  0.5000050E+01  0.7818608E-02  0.2136455E+00
        -11   -1    0    0    0    0  0.00000000000E+00  0.00000000000E+00  0.50000499739E+01  0.50000500000E+01  0.51100000000E-03 0. -1.
         11   -1    0    0    0    0 -0.00000000000E+00 -0.00000000000E+00 -0.50000499739E+01  0.50000500000E+01  0.51100000000E-03 0.  1.
     100001    1    1    2    0    0 -0.13102599626E-01  0.73017706886E-03  0.18105005509E-01  0.50000500000E+01  0.50000000000E+01 0.  0.
     100001    1    1    2    0    0  0.13102599626E-01 -0.73017706886E-03 -0.18105005509E-01  0.50000500000E+01  0.50000000000E+01 0.  1.
</event>
<event>
 4    1  0.4897575E-001  0.5000050E+01  0.7818608E-02  0.2136455E+00
        -11   -1    0    0    0    0  0.00000000000E+00  0.00000000000E+00  0.50000499739E+01  0.50000500000E+01  0.51100000000E-03 0.  1.
         11   -1    0    0    0    0 -0.00000000000E+00 -0.00000000000E+00 -0.50000499739E+01  0.50000500000E+01  0.51100000000E-03 0. -1.
     100001    1    1    2    0    0 -0.10693702397E-01  0.14235744324E-01  0.13527409678E-01  0.50000500000E+01  0.50000000000E+01 0.  1.
     100001    1    1    2    0    0  0.10693702397E-01 -0.14235744324E-01 -0.13527409678E-01  0.50000500000E+01  0.50000000000E+01 0. -1.
</event>
<event>
 4    1  0.4897575E-001  0.5000050E+01  0.7818608E-02  0.2136455E+00
        -11   -1    0    0    0    0  0.00000000000E+00  0.00000000000E+00  0.50000499739E+01  0.50000500000E+01  0.51100000000E-03 0. -1.
         11   -1    0    0    0    0 -0.00000000000E+00 -0.00000000000E+00 -0.50000499739E+01  0.50000500000E+01  0.51100000000E-03 0.  1.
     100001    1    1    2    0    0  0.10200542433E-02  0.18699344953E-01  0.12218694188E-01  0.50000500000E+01  0.50000000000E+01 0.  0.
     100001    1    1    2    0    0 -0.10200542433E-02 -0.18699344953E-01 -0.12218694188E-01  0.50000500000E+01  0.50000000000E+01 0.  0.
</event>
<event>
 4    1  0.4897575E-001  0.5000050E+01  0.7818608E-02  0.2136455E+00
        -11   -1    0    0    0    0  0.00000000000E+00  0.00000000000E+00  0.50000499739E+01  0.50000500000E+01  0.51100000000E-03 0.  1.
         11   -1    0    0    0    0 -0.00000000000E+00 -0.00000000000E+00 -0.50000499739E+01  0.50000500000E+01  0.51100000000E-03 0. -1.
     100001    1    1    2    0    0  0.15682606765E-01  0.30120841099E-02  0.15652018859E-01  0.50000500000E+01  0.50000000000E+01 0.  0.
     100001    1    1    2    0    0 -0.15682606765E-01 -0.30120841099E-02 -0.15652018859E-01  0.50000500000E+01  0.50000000000E+01 0.  0.
</event>
<event>
 4    1  0.4897575E-001  0.5000050E+01  0.7818608E-02  0.2136455E+00
        -11   -1    0    0    0    0  0.00000000000E+00  0.00000000000E+00  0.50000499739E+01  0.50000500000E+01  0.51100000000E-03 0. -1.
         11   -1    0    0    0    0 -0.00000000000E+00 -0.00000000000E+00 -0.50000499739E+01  0.50000500000E+01  0.51100000000E-03 0.  1.
     100001    1    1    2    0    0  0.13231028323E-01 -0.14214401314E-01 -0.11085719859E-01  0.50000500000E+01  0.50000000000E+01 0.  1.
     100001    1    1    2    0    0 -0.13231028323E-01  0.14214401314E-01  0.11085719859E-01  0.50000500000E+01  0.50000000000E+01 0.  1.
</event>
<event>
 4    1  0.4897575E-001  0.5000050E+01  0.7818608E-02  0.2136455E+00
        -11   -1    0    0    0    0  0.00000000000E+00  0.00000000000E+00  0.50000499739E+01  0.50000500000E+01  0.51100000000E-03 0.  1.
         11   -1    0    0    0    0 -0.00000000000E+00 -0.00000000000E+00 -0.50000499739E+01  0.50000500000E+01  0.51100000000E-03 0. -1.
     100001    1    1    2    0    0  0.96801893422E-02  0.16400074649E-02 -0.20089967890E-01  0.50000500000E+01  0.50000000000E+01 0. -1.
     100001    1    1    2    0    0 -0.96801893422E-02 -0.16400074649E-02  0.20089967890E-01  0.50000500000E+01  0.50000000000E+01 0.  0.
</event>
<event>
 4    1  0.4897575E-001  0.5000050E+01  0.7818608E-02  0.2136455E+00
        -11   -1    0    0    0    0  0.00000000000E+00  0.00000000000E+00  0.50000499739E+01  0.50000500000E+01  0.51100000000E-03 0. -1.
         11   -1    0    0    0    0 -0.00000000000E+00 -0.00000000000E+00 -0.50000499739E+01  0.50000500000E+01  0.51100000000E-03 0.  1.
     100001    1    1    2    0    0  0.16534433391E-01 -0.45425260999E-02 -0.14352019686E-01  0.50000500000E+01  0.50000000000E+01 0.  1.
     100001    1    1    2    0    0 -0.16534433391E-01  0.45425260999E-02  0.14352019686E-01  0.50000500000E+01  0.50000000000E+01 0. -1.
</event>
<event>
 4    1  0.4897575E-001  0.5000050E+01  0.7818608E-02  0.2136455E+00
        -11   -1    0    0    0    0  0.00000000000E+00  0.00000000000E+00  0.50000499739E+01  0.50000500000E+01  0.51100000000E-03 0. -1.
         11   -1    0    0    0    0 -0.00000000000E+00 -0.00000000000E+00 -0.50000499739E+01  0.50000500000E+01  0.51100000000E-03 0.  1.
     100001    1    1    2    0    0  0.25573532973E-02 -0.21961917097E-01  0.33371607012E-02  0.50000500000E+01  0.50000000000E+01 0.  1.
     100001    1    1    2    0    0 -0.25573532973E-02  0.21961917097E-01 -0.33371607012E-02  0.50000500000E+01  0.50000000000E+01 0.  0.
</event>
<event>
 4    1  0.4897575E-001  0.5000050E+01  0.7818608E-02  0.2136455E+00
        -11   -1    0    0    0    0  0.00000000000E+00  0.00000000000E+00  0.50000499739E+01  0.50000500000E+01  0.51100000000E-03 0. -1.
         11   -1    0    0    0    0 -0.00000000000E+00 -0.00000000000E+00 -0.50000499739E+01  0.50000500000E+01  0.51100000000E-03 0.  1.
     100001    1    1    2    0    0  0.89268368789E-02  0.19426139943E-01 -0.65527986586E-02  0.50000500000E+01  0.50000000000E+01 0. -1.
     100001    1    1    2    0    0 -0.89268368789E-02 -0.19426139943E-01  0.65527986586E-02  0.50000500000E+01  0.50000000000E+01 0.  0.
</event>
<event>
 4    1  0.4897575E-001  0.5000050E+01  0.7818608E-02  0.2136455E+00
        -11   -1    0    0    0    0  0.00000000000E+00  0.00000000000E+00  0.50000499739E+01  0.50000500000E+01  0.51100000000E-03 0.  1.
         11   -1    0    0    0    0 -0.00000000000E+00 -0.00000000000E+00 -0.50000499739E+01  0.50000500000E+01  0.51100000000E-03 0. -1.
     100001    1    1    2    0    0  0.20921829795E-01  0.52120802933E-02  0.59256862092E-02  0.50000500000E+01  0.50000000000E+01 0.  1.
     100001    1    1    2    0    0 -0.20921829795E-01 -0.52120802933E-02 -0.59256862092E-02  0.50000500000E+01  0.50000000000E+01 0. -1.
</event>
<event>
 4    1  0.4897575E-001  0.5000050E+01  0.7818608E-02  0.2136455E+00
        -11   -1    0    0    0    0  0.00000000000E+00  0.00000000000E+00  0.50000499739E+01  0.50000500000E+01  0.51100000000E-03 0. -1.
         11   -1    0    0    0    0 -0.00000000000E+00 -0.00000000000E+00 -0.50000499739E+01  0.50000500000E+01  0.51100000000E-03 0.  1.
     100001    1    1    2    0    0 -0.11780101214E-01  0.39992041704E-02  0.18580583451E-01  0.50000500000E+01  0.50000000000E+01 0. -1.
     100001    1    1    2    0    0  0.11780101214E-01 -0.39992041704E-02 -0.18580583451E-01  0.50000500000E+01  0.50000000000E+01 0.  1.
</event>
<event>
 4    1  0.4897575E-001  0.5000050E+01  0.7818608E-02  0.2136455E+00
        -11   -1    0    0    0    0  0.00000000000E+00  0.00000000000E+00  0.50000499739E+01  0.50000500000E+01  0.51100000000E-03 0.  1.
         11   -1    0    0    0    0 -0.00000000000E+00 -0.00000000000E+00 -0.50000499739E+01  0.50000500000E+01  0.51100000000E-03 0. -1.
     100001    1    1    2    0    0 -0.12152185260E-01 -0.22206736747E-02 -0.18638548813E-01  0.50000500000E+01  0.50000000000E+01 0.  0.
     100001    1    1    2    0    0  0.12152185260E-01  0.22206736747E-02  0.18638548813E-01  0.50000500000E+01  0.50000000000E+01 0.  1.
</event>
<event>
 4    1  0.4897575E-001  0.5000050E+01  0.7818608E-02  0.2136455E+00
        -11   -1    0    0    0    0  0.00000000000E+00  0.00000000000E+00  0.50000499739E+01  0.50000500000E+01  0.51100000000E-03 0. -1.
         11   -1    0    0    0    0 -0.00000000000E+00 -0.00000000000E+00 -0.50000499739E+01  0.50000500000E+01  0.51100000000E-03 0.  1.
     100001    1    1    2    0    0 -0.20222990807E-02 -0.72278900166E-02 -0.21063485285E-01  0.50000500000E+01  0.50000000000E+01 0.  0.
     100001    1    1    2    0    0  0.20222990807E-02  0.72278900166E-02  0.21063485285E-01  0.50000500000E+01  0.50000000000E+01 0. -1.
</event>
<event>
 4    1  0.4897575E-001  0.5000050E+01  0.7818608E-02  0.2136455E+00
        -11   -1    0    0    0    0  0.00000000000E+00  0.00000000000E+00  0.50000499739E+01  0.50000500000E+01  0.51100000000E-03 0.  1.
         11   -1    0    0    0    0 -0.00000000000E+00 -0.00000000000E+00 -0.50000499739E+01  0.50000500000E+01  0.51100000000E-03 0. -1.
     100001    1    1    2    0    0 -0.92213257686E-02 -0.17027184978E-01  0.11182335301E-01  0.50000500000E+01  0.50000000000E+01 0.  0.
     100001    1    1    2    0    0  0.92213257686E-02  0.17027184978E-01 -0.11182335301E-01  0.50000500000E+01  0.50000000000E+01 0.  0.
</event>
<event>
 4    1  0.4897575E-001  0.5000050E+01  0.7818608E-02  0.2136455E+00
        -11   -1    0    0    0    0  0.00000000000E+00  0.00000000000E+00  0.50000499739E+01  0.50000500000E+01  0.51100000000E-03 0. -1.
         11   -1    0    0    0    0 -0.00000000000E+00 -0.00000000000E+00 -0.50000499739E+01  0.50000500000E+01  0.51100000000E-03 0.  1.
     100001    1    1    2    0    0 -0.21399068335E-01  0.53498209075E-02 -0.36690312964E-02  0.50000500000E+01  0.50000000000E+01 0. -1.
     100001    1    1    2    0    0  0.21399068335E-01 -0.53498209075E-02  0.36690312964E-02  0.50000500000E+01  0.50000000000E+01 0.  0.
</event>
<event>
 4    1  0.4897575E-001  0.5000050E+01  0.7818608E-02  0.2136455E+00
        -11   -1    0    0    0    0  0.00000000000E+00  0.00000000000E+00  0.50000499739E+01  0.50000500000E+01  0.51100000000E-03 0.  1.
         11   -1    0    0    0    0 -0.00000000000E+00 -0.00000000000E+00 -0.50000499739E+01  0.50000500000E+01  0.51100000000E-03 0. -1.
     100001    1    1    2    0    0  0.11284427361E-01  0.19219845422E-01  0.18060290955E-02  0.50000500000E+01  0.50000000000E+01 0.  1.
     100001    1    1    2    0    0 -0.11284427361E-01 -0.19219845422E-01 -0.18060290955E-02  0.50000500000E+01  0.50000000000E+01 0. -1.
</event>
<event>
 4    1  0.4897575E-001  0.5000050E+01  0.7818608E-02  0.2136455E+00
        -11   -1    0    0    0    0  0.00000000000E+00  0.00000000000E+00  0.50000499739E+01  0.50000500000E+01  0.51100000000E-03 0. -1.
         11   -1    0    0    0    0 -0.00000000000E+00 -0.00000000000E+00 -0.50000499739E+01  0.50000500000E+01  0.51100000000E-03 0.  1.
     100001    1    1    2    0    0 -0.10673757663E-01  0.28947364287E-02 -0.19434348416E-01  0.50000500000E+01  0.50000000000E+01 0.  1.
     100001    1    1    2    0    0  0.10673757663E-01 -0.28947364287E-02  0.19434348416E-01  0.50000500000E+01  0.50000000000E+01 0. -1.
</event>
<event>
 4    1  0.4897575E-001  0.5000050E+01  0.7818608E-02  0.2136455E+00
        -11   -1    0    0    0    0  0.00000000000E+00  0.00000000000E+00  0.50000499739E+01  0.50000500000E+01  0.51100000000E-03 0. -1.
         11   -1    0    0    0    0 -0.00000000000E+00 -0.00000000000E+00 -0.50000499739E+01  0.50000500000E+01  0.51100000000E-03 0.  1.
     100001    1    1    2    0    0 -0.19194155349E-01 -0.86687946715E-02  0.75125827370E-02  0.50000500000E+01  0.50000000000E+01 0.  0.
     100001    1    1    2    0    0  0.19194155349E-01  0.86687946715E-02 -0.75125827370E-02  0.50000500000E+01  0.50000000000E+01 0.  0.
</event>
<event>
 4    1  0.4897575E-001  0.5000050E+01  0.7818608E-02  0.2136455E+00
        -11   -1    0    0    0    0  0.00000000000E+00  0.00000000000E+00  0.50000499739E+01  0.50000500000E+01  0.51100000000E-03 0. -1.
         11   -1    0    0    0    0 -0.00000000000E+00 -0.00000000000E+00 -0.50000499739E+01  0.50000500000E+01  0.51100000000E-03 0.  1.
     100001    1    1    2    0    0  0.14704308983E-01 -0.15869787163E-01 -0.56511638398E-02  0.50000500000E+01  0.50000000000E+01 0.  1.
     100001    1    1    2    0    0 -0.14704308983E-01  0.15869787163E-01  0.56511638398E-02  0.50000500000E+01  0.50000000000E+01 0. -1.
</event>
<event>
 4    1  0.4897575E-001  0.5000050E+01  0.7818608E-02  0.2136455E+00
        -11   -1    0    0    0    0  0.00000000000E+00  0.00000000000E+00  0.50000499739E+01  0.50000500000E+01  0.51100000000E-03 0.  1.
         11   -1    0    0    0    0 -0.00000000000E+00 -0.00000000000E+00 -0.50000499739E+01  0.50000500000E+01  0.51100000000E-03 0. -1.
     100001    1    1    2    0    0 -0.39793343403E-02 -0.12863472070E-01  0.17852128291E-01  0.50000500000E+01  0.50000000000E+01 0.  0.
     100001    1    1    2    0    0  0.39793343403E-02  0.12863472070E-01 -0.17852128291E-01  0.50000500000E+01  0.50000000000E+01 0.  0.
</event>
<event>
 4    1  0.4897575E-001  0.5000050E+01  0.7818608E-02  0.2136455E+00
        -11   -1    0    0    0    0  0.00000000000E+00  0.00000000000E+00  0.50000499739E+01  0.50000500000E+01  0.51100000000E-03 0. -1.
         11   -1    0    0    0    0 -0.00000000000E+00 -0.00000000000E+00 -0.50000499739E+01  0.50000500000E+01  0.51100000000E-03 0.  1.
     100001    1    1    2    0    0 -0.17254574139E-01 -0.10869966014E-01  0.91720232305E-02  0.50000500000E+01  0.50000000000E+01 0.  0.
     100001    1    1    2    0    0  0.17254574139E-01  0.10869966014E-01 -0.91720232305E-02  0.50000500000E+01  0.50000000000E+01 0.  0.
</event>
<event>
 4    1  0.4897575E-001  0.5000050E+01  0.7818608E-02  0.2136455E+00
        -11   -1    0    0    0    0  0.00000000000E+00  0.00000000000E+00  0.50000499739E+01  0.50000500000E+01  0.51100000000E-03 0.  1.
         11   -1    0    0    0    0 -0.00000000000E+00 -0.00000000000E+00 -0.50000499739E+01  0.50000500000E+01  0.51100000000E-03 0. -1.
     100001    1    1    2    0    0  0.88338792765E-02 -0.54313641367E-02 -0.19810738516E-01  0.50000500000E+01  0.50000000000E+01 0.  0.
     100001    1    1    2    0    0 -0.88338792765E-02  0.54313641367E-02  0.19810738516E-01  0.50000500000E+01  0.50000000000E+01 0.  1.
</event>
<event>
 4    1  0.4897575E-001  0.5000050E+01  0.7818608E-02  0.2136455E+00
        -11   -1    0    0    0    0  0.00000000000E+00  0.00000000000E+00  0.50000499739E+01  0.50000500000E+01  0.51100000000E-03 0. -1.
         11   -1    0    0    0    0 -0.00000000000E+00 -0.00000000000E+00 -0.50000499739E+01  0.50000500000E+01  0.51100000000E-03 0.  1.
     100001    1    1    2    0    0 -0.13788084596E-01  0.16553874126E-01  0.59883615968E-02  0.50000500000E+01  0.50000000000E+01 0.  0.
     100001    1    1    2    0    0  0.13788084596E-01 -0.16553874126E-01 -0.59883615968E-02  0.50000500000E+01  0.50000000000E+01 0. -1.
</event>
<event>
 4    1  0.4897575E-001  0.5000050E+01  0.7818608E-02  0.2136455E+00
        -11   -1    0    0    0    0  0.00000000000E+00  0.00000000000E+00  0.50000499739E+01  0.50000500000E+01  0.51100000000E-03 0. -1.
         11   -1    0    0    0    0 -0.00000000000E+00 -0.00000000000E+00 -0.50000499739E+01  0.50000500000E+01  0.51100000000E-03 0.  1.
     100001    1    1    2    0    0 -0.14054517471E-01 -0.79457601417E-02  0.15470550553E-01  0.50000500000E+01  0.50000000000E+01 0. -1.
     100001    1    1    2    0    0  0.14054517471E-01  0.79457601417E-02 -0.15470550553E-01  0.50000500000E+01  0.50000000000E+01 0.  1.
</event>
<event>
 4    1  0.4897575E-001  0.5000050E+01  0.7818608E-02  0.2136455E+00
        -11   -1    0    0    0    0  0.00000000000E+00  0.00000000000E+00  0.50000499739E+01  0.50000500000E+01  0.51100000000E-03 0.  1.
         11   -1    0    0    0    0 -0.00000000000E+00 -0.00000000000E+00 -0.50000499739E+01  0.50000500000E+01  0.51100000000E-03 0. -1.
     100001    1    1    2    0    0  0.12615649646E-02  0.33299470558E-02  0.22075380097E-01  0.50000500000E+01  0.50000000000E+01 0.  0.
     100001    1    1    2    0    0 -0.12615649646E-02 -0.33299470558E-02 -0.22075380097E-01  0.50000500000E+01  0.50000000000E+01 0. -1.
</event>
<event>
 4    1  0.4897575E-001  0.5000050E+01  0.7818608E-02  0.2136455E+00
        -11   -1    0    0    0    0  0.00000000000E+00  0.00000000000E+00  0.50000499739E+01  0.50000500000E+01  0.51100000000E-03 0. -1.
         11   -1    0    0    0    0 -0.00000000000E+00 -0.00000000000E+00 -0.50000499739E+01  0.50000500000E+01  0.51100000000E-03 0.  1.
     100001    1    1    2    0    0 -0.16391416388E-01  0.77325855017E-02 -0.13096987831E-01  0.50000500000E+01  0.50000000000E+01 0.  1.
     100001    1    1    2    0    0  0.16391416388E-01 -0.77325855017E-02  0.13096987831E-01  0.50000500000E+01  0.50000000000E+01 0. -1.
</event>
<event>
 4    1  0.4897575E-001  0.5000050E+01  0.7818608E-02  0.2136455E+00
        -11   -1    0    0    0    0  0.00000000000E+00  0.00000000000E+00  0.50000499739E+01  0.50000500000E+01  0.51100000000E-03 0.  1.
         11   -1    0    0    0    0 -0.00000000000E+00 -0.00000000000E+00 -0.50000499739E+01  0.50000500000E+01  0.51100000000E-03 0. -1.
     100001    1    1    2    0    0  0.77598023887E-03 -0.22200554902E-01 -0.25565047805E-02  0.50000500000E+01  0.50000000000E+01 0.  1.
     100001    1    1    2    0    0 -0.77598023887E-03  0.22200554902E-01  0.25565047805E-02  0.50000500000E+01  0.50000000000E+01 0. -1.
</event>
<event>
 4    1  0.4897575E-001  0.5000050E+01  0.7818608E-02  0.2136455E+00
        -11   -1    0    0    0    0  0.00000000000E+00  0.00000000000E+00  0.50000499739E+01  0.50000500000E+01  0.51100000000E-03 0. -1.
         11   -1    0    0    0    0 -0.00000000000E+00 -0.00000000000E+00 -0.50000499739E+01  0.50000500000E+01  0.51100000000E-03 0.  1.
     100001    1    1    2    0    0  0.15560113321E-01 -0.13197785648E-01  0.91489795839E-02  0.50000500000E+01  0.50000000000E+01 0.  0.
     100001    1    1    2    0    0 -0.15560113321E-01  0.13197785648E-01 -0.91489795839E-02  0.50000500000E+01  0.50000000000E+01 0.  0.
</event>
<event>
 4    1  0.4897575E-001  0.5000050E+01  0.7818608E-02  0.2136455E+00
        -11   -1    0    0    0    0  0.00000000000E+00  0.00000000000E+00  0.50000499739E+01  0.50000500000E+01  0.51100000000E-03 0. -1.
         11   -1    0    0    0    0 -0.00000000000E+00 -0.00000000000E+00 -0.50000499739E+01  0.50000500000E+01  0.51100000000E-03 0.  1.
     100001    1    1    2    0    0 -0.57456903757E-02  0.15326349460E-01 -0.15234584153E-01  0.50000500000E+01  0.50000000000E+01 0.  1.
     100001    1    1    2    0    0  0.57456903757E-02 -0.15326349460E-01  0.15234584153E-01  0.50000500000E+01  0.50000000000E+01 0. -1.
</event>
<event>
 4    1  0.4897575E-001  0.5000050E+01  0.7818608E-02  0.2136455E+00
        -11   -1    0    0    0    0  0.00000000000E+00  0.00000000000E+00  0.50000499739E+01  0.50000500000E+01  0.51100000000E-03 0. -1.
         11   -1    0    0    0    0 -0.00000000000E+00 -0.00000000000E+00 -0.50000499739E+01  0.50000500000E+01  0.51100000000E-03 0.  1.
     100001    1    1    2    0    0  0.19634059743E-01  0.43480143461E-02  0.97775748139E-02  0.50000500000E+01  0.50000000000E+01 0.  1.
     100001    1    1    2    0    0 -0.19634059743E-01 -0.43480143461E-02 -0.97775748139E-02  0.50000500000E+01  0.50000000000E+01 0.  0.
</event>
<event>
 4    1  0.4897575E-001  0.5000050E+01  0.7818608E-02  0.2136455E+00
        -11   -1    0    0    0    0  0.00000000000E+00  0.00000000000E+00  0.50000499739E+01  0.50000500000E+01  0.51100000000E-03 0. -1.
         11   -1    0    0    0    0 -0.00000000000E+00 -0.00000000000E+00 -0.50000499739E+01  0.50000500000E+01  0.51100000000E-03 0.  1.
     100001    1    1    2    0    0 -0.19991326089E-01  0.57200776030E-02  0.82237517859E-02  0.50000500000E+01  0.50000000000E+01 0. -1.
     100001    1    1    2    0    0  0.19991326089E-01 -0.57200776030E-02 -0.82237517859E-02  0.50000500000E+01  0.50000000000E+01 0.  1.
</event>
<event>
 4    1  0.4897575E-001  0.5000050E+01  0.7818608E-02  0.2136455E+00
        -11   -1    0    0    0    0  0.00000000000E+00  0.00000000000E+00  0.50000499739E+01  0.50000500000E+01  0.51100000000E-03 0.  1.
         11   -1    0    0    0    0 -0.00000000000E+00 -0.00000000000E+00 -0.50000499739E+01  0.50000500000E+01  0.51100000000E-03 0. -1.
     100001    1    1    2    0    0 -0.19030254093E-01  0.76635205778E-02 -0.88950762501E-02  0.50000500000E+01  0.50000000000E+01 0.  1.
     100001    1    1    2    0    0  0.19030254093E-01 -0.76635205778E-02  0.88950762501E-02  0.50000500000E+01  0.50000000000E+01 0.  1.
</event>
<event>
 4    1  0.4897575E-001  0.5000050E+01  0.7818608E-02  0.2136455E+00
        -11   -1    0    0    0    0  0.00000000000E+00  0.00000000000E+00  0.50000499739E+01  0.50000500000E+01  0.51100000000E-03 0.  1.
         11   -1    0    0    0    0 -0.00000000000E+00 -0.00000000000E+00 -0.50000499739E+01  0.50000500000E+01  0.51100000000E-03 0. -1.
     100001    1    1    2    0    0  0.21536545295E-01  0.40405002525E-02  0.44557911160E-02  0.50000500000E+01  0.50000000000E+01 0. -1.
     100001    1    1    2    0    0 -0.21536545295E-01 -0.40405002525E-02 -0.44557911160E-02  0.50000500000E+01  0.50000000000E+01 0.  0.
</event>
<event>
 4    1  0.4897575E-001  0.5000050E+01  0.7818608E-02  0.2136455E+00
        -11   -1    0    0    0    0  0.00000000000E+00  0.00000000000E+00  0.50000499739E+01  0.50000500000E+01  0.51100000000E-03 0.  1.
         11   -1    0    0    0    0 -0.00000000000E+00 -0.00000000000E+00 -0.50000499739E+01  0.50000500000E+01  0.51100000000E-03 0. -1.
     100001    1    1    2    0    0 -0.26323299821E-02 -0.65726888208E-02 -0.21210212175E-01  0.50000500000E+01  0.50000000000E+01 0.  0.
     100001    1    1    2    0    0  0.26323299821E-02  0.65726888208E-02  0.21210212175E-01  0.50000500000E+01  0.50000000000E+01 0.  0.
</event>
<event>
 4    1  0.4897575E-001  0.5000050E+01  0.7818608E-02  0.2136455E+00
        -11   -1    0    0    0    0  0.00000000000E+00  0.00000000000E+00  0.50000499739E+01  0.50000500000E+01  0.51100000000E-03 0.  1.
         11   -1    0    0    0    0 -0.00000000000E+00 -0.00000000000E+00 -0.50000499739E+01  0.50000500000E+01  0.51100000000E-03 0. -1.
     100001    1    1    2    0    0 -0.95835815680E-02  0.14863645742E-01  0.13683183093E-01  0.50000500000E+01  0.50000000000E+01 0.  0.
     100001    1    1    2    0    0  0.95835815680E-02 -0.14863645742E-01 -0.13683183093E-01  0.50000500000E+01  0.50000000000E+01 0.  0.
</event>
<event>
 4    1  0.4897575E-001  0.5000050E+01  0.7818608E-02  0.2136455E+00
        -11   -1    0    0    0    0  0.00000000000E+00  0.00000000000E+00  0.50000499739E+01  0.50000500000E+01  0.51100000000E-03 0. -1.
         11   -1    0    0    0    0 -0.00000000000E+00 -0.00000000000E+00 -0.50000499739E+01  0.50000500000E+01  0.51100000000E-03 0.  1.
     100001    1    1    2    0    0 -0.21841278407E-01 -0.98824716823E-03  0.46887551738E-02  0.50000500000E+01  0.50000000000E+01 0.  0.
     100001    1    1    2    0    0  0.21841278407E-01  0.98824716823E-03 -0.46887551739E-02  0.50000500000E+01  0.50000000000E+01 0. -1.
</event>
<event>
 4    1  0.4897575E-001  0.5000050E+01  0.7818608E-02  0.2136455E+00
        -11   -1    0    0    0    0  0.00000000000E+00  0.00000000000E+00  0.50000499739E+01  0.50000500000E+01  0.51100000000E-03 0. -1.
         11   -1    0    0    0    0 -0.00000000000E+00 -0.00000000000E+00 -0.50000499739E+01  0.50000500000E+01  0.51100000000E-03 0.  1.
     100001    1    1    2    0    0  0.70515707234E-02 -0.21093247804E-01  0.23136005298E-02  0.50000500000E+01  0.50000000000E+01 0. -1.
     100001    1    1    2    0    0 -0.70515707234E-02  0.21093247804E-01 -0.23136005298E-02  0.50000500000E+01  0.50000000000E+01 0.  1.
</event>
<event>
 4    1  0.4897575E-001  0.5000050E+01  0.7818608E-02  0.2136455E+00
        -11   -1    0    0    0    0  0.00000000000E+00  0.00000000000E+00  0.50000499739E+01  0.50000500000E+01  0.51100000000E-03 0. -1.
         11   -1    0    0    0    0 -0.00000000000E+00 -0.00000000000E+00 -0.50000499739E+01  0.50000500000E+01  0.51100000000E-03 0.  1.
     100001    1    1    2    0    0 -0.20737846289E-01 -0.74082992334E-02  0.38808934234E-02  0.50000500000E+01  0.50000000000E+01 0.  0.
     100001    1    1    2    0    0  0.20737846289E-01  0.74082992334E-02 -0.38808934234E-02  0.50000500000E+01  0.50000000000E+01 0.  0.
</event>
<event>
 4    1  0.4897575E-001  0.5000050E+01  0.7818608E-02  0.2136455E+00
        -11   -1    0    0    0    0  0.00000000000E+00  0.00000000000E+00  0.50000499739E+01  0.50000500000E+01  0.51100000000E-03 0.  1.
         11   -1    0    0    0    0 -0.00000000000E+00 -0.00000000000E+00 -0.50000499739E+01  0.50000500000E+01  0.51100000000E-03 0. -1.
     100001    1    1    2    0    0 -0.61867362148E-02  0.21413676379E-01  0.17836084030E-02  0.50000500000E+01  0.50000000000E+01 0.  0.
     100001    1    1    2    0    0  0.61867362148E-02 -0.21413676379E-01 -0.17836084030E-02  0.50000500000E+01  0.50000000000E+01 0.  1.
</event>
<event>
 4    1  0.4897575E-001  0.5000050E+01  0.7818608E-02  0.2136455E+00
        -11   -1    0    0    0    0  0.00000000000E+00  0.00000000000E+00  0.50000499739E+01  0.50000500000E+01  0.51100000000E-03 0.  1.
         11   -1    0    0    0    0 -0.00000000000E+00 -0.00000000000E+00 -0.50000499739E+01  0.50000500000E+01  0.51100000000E-03 0. -1.
     100001    1    1    2    0    0 -0.17913052514E-01 -0.72243672676E-02  0.11266479805E-01  0.50000500000E+01  0.50000000000E+01 0.  1.
     100001    1    1    2    0    0  0.17913052514E-01  0.72243672676E-02 -0.11266479805E-01  0.50000500000E+01  0.50000000000E+01 0. -1.
</event>
<event>
 4    1  0.4897575E-001  0.5000050E+01  0.7818608E-02  0.2136455E+00
        -11   -1    0    0    0    0  0.00000000000E+00  0.00000000000E+00  0.50000499739E+01  0.50000500000E+01  0.51100000000E-03 0.  1.
         11   -1    0    0    0    0 -0.00000000000E+00 -0.00000000000E+00 -0.50000499739E+01  0.50000500000E+01  0.51100000000E-03 0. -1.
     100001    1    1    2    0    0  0.13772124490E-02 -0.10959373864E-01 -0.19442168356E-01  0.50000500000E+01  0.50000000000E+01 0. -1.
     100001    1    1    2    0    0 -0.13772124490E-02  0.10959373864E-01  0.19442168356E-01  0.50000500000E+01  0.50000000000E+01 0.  1.
</event>
<event>
 4    1  0.4897575E-001  0.5000050E+01  0.7818608E-02  0.2136455E+00
        -11   -1    0    0    0    0  0.00000000000E+00  0.00000000000E+00  0.50000499739E+01  0.50000500000E+01  0.51100000000E-03 0. -1.
         11   -1    0    0    0    0 -0.00000000000E+00 -0.00000000000E+00 -0.50000499739E+01  0.50000500000E+01  0.51100000000E-03 0.  1.
     100001    1    1    2    0    0 -0.19474832396E-01 -0.10987561142E-01  0.83086136033E-04  0.50000500000E+01  0.50000000000E+01 0.  1.
     100001    1    1    2    0    0  0.19474832396E-01  0.10987561142E-01 -0.83086136034E-04  0.50000500000E+01  0.50000000000E+01 0. -1.
</event>
<event>
 4    1  0.4897575E-001  0.5000050E+01  0.7818608E-02  0.2136455E+00
        -11   -1    0    0    0    0  0.00000000000E+00  0.00000000000E+00  0.50000499739E+01  0.50000500000E+01  0.51100000000E-03 0.  1.
         11   -1    0    0    0    0 -0.00000000000E+00 -0.00000000000E+00 -0.50000499739E+01  0.50000500000E+01  0.51100000000E-03 0. -1.
     100001    1    1    2    0    0  0.21089028875E-01  0.58290304137E-02 -0.46127828398E-02  0.50000500000E+01  0.50000000000E+01 0.  0.
     100001    1    1    2    0    0 -0.21089028875E-01 -0.58290304137E-02  0.46127828398E-02  0.50000500000E+01  0.50000000000E+01 0. -1.
</event>
<event>
 4    1  0.4897575E-001  0.5000050E+01  0.7818608E-02  0.2136455E+00
        -11   -1    0    0    0    0  0.00000000000E+00  0.00000000000E+00  0.50000499739E+01  0.50000500000E+01  0.51100000000E-03 0.  1.
         11   -1    0    0    0    0 -0.00000000000E+00 -0.00000000000E+00 -0.50000499739E+01  0.50000500000E+01  0.51100000000E-03 0. -1.
     100001    1    1    2    0    0  0.15749951130E-02 -0.12475362848E-01 -0.18490192324E-01  0.50000500000E+01  0.50000000000E+01 0. -1.
     100001    1    1    2    0    0 -0.15749951130E-02  0.12475362848E-01  0.18490192324E-01  0.50000500000E+01  0.50000000000E+01 0.  0.
</event>
<event>
 4    1  0.4897575E-001  0.5000050E+01  0.7818608E-02  0.2136455E+00
        -11   -1    0    0    0    0  0.00000000000E+00  0.00000000000E+00  0.50000499739E+01  0.50000500000E+01  0.51100000000E-03 0.  1.
         11   -1    0    0    0    0 -0.00000000000E+00 -0.00000000000E+00 -0.50000499739E+01  0.50000500000E+01  0.51100000000E-03 0. -1.
     100001    1    1    2    0    0 -0.21307839477E-01  0.56171394617E-02  0.37981865524E-02  0.50000500000E+01  0.50000000000E+01 0.  1.
     100001    1    1    2    0    0  0.21307839477E-01 -0.56171394617E-02 -0.37981865524E-02  0.50000500000E+01  0.50000000000E+01 0. -1.
</event>
<event>
 4    1  0.4897575E-001  0.5000050E+01  0.7818608E-02  0.2136455E+00
        -11   -1    0    0    0    0  0.00000000000E+00  0.00000000000E+00  0.50000499739E+01  0.50000500000E+01  0.51100000000E-03 0.  1.
         11   -1    0    0    0    0 -0.00000000000E+00 -0.00000000000E+00 -0.50000499739E+01  0.50000500000E+01  0.51100000000E-03 0. -1.
     100001    1    1    2    0    0  0.21249431144E-01  0.49132426439E-02  0.49319593245E-02  0.50000500000E+01  0.50000000000E+01 0.  0.
     100001    1    1    2    0    0 -0.21249431144E-01 -0.49132426439E-02 -0.49319593245E-02  0.50000500000E+01  0.50000000000E+01 0.  1.
</event>
