<event>
 4    1  0.4967105E-021  0.5000050E+01  0.7818608E-02  0.2136455E+00
        -11   -1    0    0    0    0  0.00000000000E+00  0.00000000000E+00  0.50000499739E+01  0.50000500000E+01  0.51100000000E-03 0.  1.
         11   -1    0    0    0    0 -0.00000000000E+00 -0.00000000000E+00 -0.50000499739E+01  0.50000500000E+01  0.51100000000E-03 0. -1.
         50    1    1    2    0    0 -0.66327569069E-02  0.95745254012E-02  0.19087626860E-01  0.50000500000E+01  0.50000000000E+01 0.  1.
         50    1    1    2    0    0  0.66327569069E-02 -0.95745254012E-02 -0.19087626860E-01  0.50000500000E+01  0.50000000000E+01 0.  0.
</event>
<event>
 4    1  0.4967105E-021  0.5000050E+01  0.7818608E-02  0.2136455E+00
        -11   -1    0    0    0    0  0.00000000000E+00  0.00000000000E+00  0.50000499739E+01  0.50000500000E+01  0.51100000000E-03 0.  1.
         11   -1    0    0    0    0 -0.00000000000E+00 -0.00000000000E+00 -0.50000499739E+01  0.50000500000E+01  0.51100000000E-03 0. -1.
         50    1    1    2    0    0  0.11738531177E-01  0.25237093619E-02 -0.18863729135E-01  0.50000500000E+01  0.50000000000E+01 0.  0.
         50    1    1    2    0    0 -0.11738531177E-01 -0.25237093619E-02  0.18863729135E-01  0.50000500000E+01  0.50000000000E+01 0.  1.
</event>
<event>
 4    1  0.4967105E-021  0.5000050E+01  0.7818608E-02  0.2136455E+00
        -11   -1    0    0    0    0  0.00000000000E+00  0.00000000000E+00  0.50000499739E+01  0.50000500000E+01  0.51100000000E-03 0. -1.
         11   -1    0    0    0    0 -0.00000000000E+00 -0.00000000000E+00 -0.50000499739E+01  0.50000500000E+01  0.51100000000E-03 0.  1.
         50    1    1    2    0    0 -0.69035189608E-02 -0.75024353994E-02 -0.19901190644E-01  0.50000500000E+01  0.50000000000E+01 0.  0.
         50    1    1    2    0    0  0.69035189608E-02  0.75024353994E-02  0.19901190644E-01  0.50000500000E+01  0.50000000000E+01 0.  0.
</event>
<event>
 4    1  0.4967105E-021  0.5000050E+01  0.7818608E-02  0.2136455E+00
        -11   -1    0    0    0    0  0.00000000000E+00  0.00000000000E+00  0.50000499739E+01  0.50000500000E+01  0.51100000000E-03 0.  1.
         11   -1    0    0    0    0 -0.00000000000E+00 -0.00000000000E+00 -0.50000499739E+01  0.50000500000E+01  0.51100000000E-03 0. -1.
         50    1    1    2    0    0 -0.40589214506E-02  0.17800594084E-01  0.12909938300E-01  0.50000500000E+01  0.50000000000E+01 0. -1.
         50    1    1    2    0    0  0.40589214506E-02 -0.17800594084E-01 -0.12909938300E-01  0.50000500000E+01  0.50000000000E+01 0. -1.
</event>
<event>
 4    1  0.4967105E-021  0.5000050E+01  0.7818608E-02  0.2136455E+00
        -11   -1    0    0    0    0  0.00000000000E+00  0.00000000000E+00  0.50000499739E+01  0.50000500000E+01  0.51100000000E-03 0.  1.
         11   -1    0    0    0    0 -0.00000000000E+00 -0.00000000000E+00 -0.50000499739E+01  0.50000500000E+01  0.51100000000E-03 0. -1.
         50    1    1    2    0    0  0.10068262915E-01  0.14667994559E-01  0.13545571877E-01  0.50000500000E+01  0.50000000000E+01 0.  0.
         50    1    1    2    0    0 -0.10068262915E-01 -0.14667994559E-01 -0.13545571877E-01  0.50000500000E+01  0.50000000000E+01 0.  0.
</event>
<event>
 4    1  0.4967105E-021  0.5000050E+01  0.7818608E-02  0.2136455E+00
        -11   -1    0    0    0    0  0.00000000000E+00  0.00000000000E+00  0.50000499739E+01  0.50000500000E+01  0.51100000000E-03 0.  1.
         11   -1    0    0    0    0 -0.00000000000E+00 -0.00000000000E+00 -0.50000499739E+01  0.50000500000E+01  0.51100000000E-03 0. -1.
         50    1    1    2    0    0 -0.14252363595E-01  0.14917866595E-01 -0.86214783074E-02  0.50000500000E+01  0.50000000000E+01 0.  0.
         50    1    1    2    0    0  0.14252363595E-01 -0.14917866595E-01  0.86214783074E-02  0.50000500000E+01  0.50000000000E+01 0.  0.
</event>
<event>
 4    1  0.4967105E-021  0.5000050E+01  0.7818608E-02  0.2136455E+00
        -11   -1    0    0    0    0  0.00000000000E+00  0.00000000000E+00  0.50000499739E+01  0.50000500000E+01  0.51100000000E-03 0. -1.
         11   -1    0    0    0    0 -0.00000000000E+00 -0.00000000000E+00 -0.50000499739E+01  0.50000500000E+01  0.51100000000E-03 0.  1.
         50    1    1    2    0    0 -0.13511755285E-01  0.17815273786E-01 -0.22580752400E-03  0.50000500000E+01  0.50000000000E+01 0.  0.
         50    1    1    2    0    0  0.13511755285E-01 -0.17815273786E-01  0.22580752400E-03  0.50000500000E+01  0.50000000000E+01 0.  1.
</event>
<event>
 4    1  0.4967105E-021  0.5000050E+01  0.7818608E-02  0.2136455E+00
        -11   -1    0    0    0    0  0.00000000000E+00  0.00000000000E+00  0.50000499739E+01  0.50000500000E+01  0.51100000000E-03 0. -1.
         11   -1    0    0    0    0 -0.00000000000E+00 -0.00000000000E+00 -0.50000499739E+01  0.50000500000E+01  0.51100000000E-03 0.  1.
         50    1    1    2    0    0 -0.90579912477E-02  0.15846449287E-01  0.12916862605E-01  0.50000500000E+01  0.50000000000E+01 0. -1.
         50    1    1    2    0    0  0.90579912477E-02 -0.15846449287E-01 -0.12916862605E-01  0.50000500000E+01  0.50000000000E+01 0.  1.
</event>
<event>
 4    1  0.4967105E-021  0.5000050E+01  0.7818608E-02  0.2136455E+00
        -11   -1    0    0    0    0  0.00000000000E+00  0.00000000000E+00  0.50000499739E+01  0.50000500000E+01  0.51100000000E-03 0. -1.
         11   -1    0    0    0    0 -0.00000000000E+00 -0.00000000000E+00 -0.50000499739E+01  0.50000500000E+01  0.51100000000E-03 0.  1.
         50    1    1    2    0    0 -0.18246368848E-01 -0.97211582222E-02 -0.85188970347E-02  0.50000500000E+01  0.50000000000E+01 0.  1.
         50    1    1    2    0    0  0.18246368848E-01  0.97211582222E-02  0.85188970347E-02  0.50000500000E+01  0.50000000000E+01 0. -1.
</event>
<event>
 4    1  0.4967105E-021  0.5000050E+01  0.7818608E-02  0.2136455E+00
        -11   -1    0    0    0    0  0.00000000000E+00  0.00000000000E+00  0.50000499739E+01  0.50000500000E+01  0.51100000000E-03 0.  1.
         11   -1    0    0    0    0 -0.00000000000E+00 -0.00000000000E+00 -0.50000499739E+01  0.50000500000E+01  0.51100000000E-03 0. -1.
         50    1    1    2    0    0 -0.15312207690E-01 -0.13232400718E-01 -0.95101191847E-02  0.50000500000E+01  0.50000000000E+01 0.  1.
         50    1    1    2    0    0  0.15312207690E-01  0.13232400718E-01  0.95101191847E-02  0.50000500000E+01  0.50000000000E+01 0.  0.
</event>
<event>
 4    1  0.4967105E-021  0.5000050E+01  0.7818608E-02  0.2136455E+00
        -11   -1    0    0    0    0  0.00000000000E+00  0.00000000000E+00  0.50000499739E+01  0.50000500000E+01  0.51100000000E-03 0.  1.
         11   -1    0    0    0    0 -0.00000000000E+00 -0.00000000000E+00 -0.50000499739E+01  0.50000500000E+01  0.51100000000E-03 0. -1.
         50    1    1    2    0    0 -0.10071921410E-01 -0.13634721134E-01  0.14582636206E-01  0.50000500000E+01  0.50000000000E+01 0.  0.
         50    1    1    2    0    0  0.10071921410E-01  0.13634721134E-01 -0.14582636206E-01  0.50000500000E+01  0.50000000000E+01 0.  1.
</event>
<event>
 4    1  0.4967105E-021  0.5000050E+01  0.7818608E-02  0.2136455E+00
        -11   -1    0    0    0    0  0.00000000000E+00  0.00000000000E+00  0.50000499739E+01  0.50000500000E+01  0.51100000000E-03 0. -1.
         11   -1    0    0    0    0 -0.00000000000E+00 -0.00000000000E+00 -0.50000499739E+01  0.50000500000E+01  0.51100000000E-03 0.  1.
         50    1    1    2    0    0 -0.35521021948E-02  0.10884667892E-01  0.19207005880E-01  0.50000500000E+01  0.50000000000E+01 0. -1.
         50    1    1    2    0    0  0.35521021948E-02 -0.10884667892E-01 -0.19207005880E-01  0.50000500000E+01  0.50000000000E+01 0.  1.
</event>
<event>
 4    1  0.4967105E-021  0.5000050E+01  0.7818608E-02  0.2136455E+00
        -11   -1    0    0    0    0  0.00000000000E+00  0.00000000000E+00  0.50000499739E+01  0.50000500000E+01  0.51100000000E-03 0. -1.
         11   -1    0    0    0    0 -0.00000000000E+00 -0.00000000000E+00 -0.50000499739E+01  0.50000500000E+01  0.51100000000E-03 0.  1.
         50    1    1    2    0    0  0.10793371127E-01  0.11510497252E-01  0.15843424274E-01  0.50000500000E+01  0.50000000000E+01 0.  0.
         50    1    1    2    0    0 -0.10793371127E-01 -0.11510497252E-01 -0.15843424274E-01  0.50000500000E+01  0.50000000000E+01 0.  0.
</event>
<event>
 4    1  0.4967105E-021  0.5000050E+01  0.7818608E-02  0.2136455E+00
        -11   -1    0    0    0    0  0.00000000000E+00  0.00000000000E+00  0.50000499739E+01  0.50000500000E+01  0.51100000000E-03 0.  1.
         11   -1    0    0    0    0 -0.00000000000E+00 -0.00000000000E+00 -0.50000499739E+01  0.50000500000E+01  0.51100000000E-03 0. -1.
         50    1    1    2    0    0 -0.54665189202E-02  0.21565752298E-01 -0.22445486621E-02  0.50000500000E+01  0.50000000000E+01 0. -1.
         50    1    1    2    0    0  0.54665189202E-02 -0.21565752298E-01  0.22445486621E-02  0.50000500000E+01  0.50000000000E+01 0.  1.
</event>
<event>
 4    1  0.4967105E-021  0.5000050E+01  0.7818608E-02  0.2136455E+00
        -11   -1    0    0    0    0  0.00000000000E+00  0.00000000000E+00  0.50000499739E+01  0.50000500000E+01  0.51100000000E-03 0. -1.
         11   -1    0    0    0    0 -0.00000000000E+00 -0.00000000000E+00 -0.50000499739E+01  0.50000500000E+01  0.51100000000E-03 0.  1.
         50    1    1    2    0    0  0.50091410225E-02  0.74570101007E-02 -0.20476913990E-01  0.50000500000E+01  0.50000000000E+01 0.  0.
         50    1    1    2    0    0 -0.50091410225E-02 -0.74570101007E-02  0.20476913990E-01  0.50000500000E+01  0.50000000000E+01 0. -1.
</event>
<event>
 4    1  0.4967105E-021  0.5000050E+01  0.7818608E-02  0.2136455E+00
        -11   -1    0    0    0    0  0.00000000000E+00  0.00000000000E+00  0.50000499739E+01  0.50000500000E+01  0.51100000000E-03 0. -1.
         11   -1    0    0    0    0 -0.00000000000E+00 -0.00000000000E+00 -0.50000499739E+01  0.50000500000E+01  0.51100000000E-03 0.  1.
         50    1    1    2    0    0  0.17093003574E-01 -0.13127259564E-01 -0.59587570155E-02  0.50000500000E+01  0.50000000000E+01 0.  0.
         50    1    1    2    0    0 -0.17093003574E-01  0.13127259564E-01  0.59587570155E-02  0.50000500000E+01  0.50000000000E+01 0.  1.
</event>
<event>
 4    1  0.4967105E-021  0.5000050E+01  0.7818608E-02  0.2136455E+00
        -11   -1    0    0    0    0  0.00000000000E+00  0.00000000000E+00  0.50000499739E+01  0.50000500000E+01  0.51100000000E-03 0. -1.
         11   -1    0    0    0    0 -0.00000000000E+00 -0.00000000000E+00 -0.50000499739E+01  0.50000500000E+01  0.51100000000E-03 0.  1.
         50    1    1    2    0    0  0.22144876525E-02 -0.92376671707E-02  0.20242629515E-01  0.50000500000E+01  0.50000000000E+01 0.  0.
         50    1    1    2    0    0 -0.22144876525E-02  0.92376671707E-02 -0.20242629515E-01  0.50000500000E+01  0.50000000000E+01 0.  1.
</event>
<event>
 4    1  0.4967105E-021  0.5000050E+01  0.7818608E-02  0.2136455E+00
        -11   -1    0    0    0    0  0.00000000000E+00  0.00000000000E+00  0.50000499739E+01  0.50000500000E+01  0.51100000000E-03 0. -1.
         11   -1    0    0    0    0 -0.00000000000E+00 -0.00000000000E+00 -0.50000499739E+01  0.50000500000E+01  0.51100000000E-03 0.  1.
         50    1    1    2    0    0  0.19706744258E-01  0.26810624941E-02  0.10220500704E-01  0.50000500000E+01  0.50000000000E+01 0. -1.
         50    1    1    2    0    0 -0.19706744258E-01 -0.26810624941E-02 -0.10220500704E-01  0.50000500000E+01  0.50000000000E+01 0.  1.
</event>
<event>
 4    1  0.4967105E-021  0.5000050E+01  0.7818608E-02  0.2136455E+00
        -11   -1    0    0    0    0  0.00000000000E+00  0.00000000000E+00  0.50000499739E+01  0.50000500000E+01  0.51100000000E-03 0.  1.
         11   -1    0    0    0    0 -0.00000000000E+00 -0.00000000000E+00 -0.50000499739E+01  0.50000500000E+01  0.51100000000E-03 0. -1.
         50    1    1    2    0    0 -0.20553209728E-01 -0.77337336708E-02  0.42139569769E-02  0.50000500000E+01  0.50000000000E+01 0.  1.
         50    1    1    2    0    0  0.20553209728E-01  0.77337336708E-02 -0.42139569769E-02  0.50000500000E+01  0.50000000000E+01 0. -1.
</event>
<event>
 4    1  0.4967105E-021  0.5000050E+01  0.7818608E-02  0.2136455E+00
        -11   -1    0    0    0    0  0.00000000000E+00  0.00000000000E+00  0.50000499739E+01  0.50000500000E+01  0.51100000000E-03 0. -1.
         11   -1    0    0    0    0 -0.00000000000E+00 -0.00000000000E+00 -0.50000499739E+01  0.50000500000E+01  0.51100000000E-03 0.  1.
         50    1    1    2    0    0 -0.16716738071E-01 -0.13681818603E-01 -0.57758988906E-02  0.50000500000E+01  0.50000000000E+01 0. -1.
         50    1    1    2    0    0  0.16716738071E-01  0.13681818603E-01  0.57758988906E-02  0.50000500000E+01  0.50000000000E+01 0.  0.
</event>
<event>
 4    1  0.4967105E-021  0.5000050E+01  0.7818608E-02  0.2136455E+00
        -11   -1    0    0    0    0  0.00000000000E+00  0.00000000000E+00  0.50000499739E+01  0.50000500000E+01  0.51100000000E-03 0.  1.
         11   -1    0    0    0    0 -0.00000000000E+00 -0.00000000000E+00 -0.50000499739E+01  0.50000500000E+01  0.51100000000E-03 0. -1.
         50    1    1    2    0    0  0.15604843947E-01  0.14060104897E-01 -0.76684285008E-02  0.50000500000E+01  0.50000000000E+01 0. -1.
         50    1    1    2    0    0 -0.15604843947E-01 -0.14060104897E-01  0.76684285008E-02  0.50000500000E+01  0.50000000000E+01 0.  1.
</event>
<event>
 4    1  0.4967105E-021  0.5000050E+01  0.7818608E-02  0.2136455E+00
        -11   -1    0    0    0    0  0.00000000000E+00  0.00000000000E+00  0.50000499739E+01  0.50000500000E+01  0.51100000000E-03 0. -1.
         11   -1    0    0    0    0 -0.00000000000E+00 -0.00000000000E+00 -0.50000499739E+01  0.50000500000E+01  0.51100000000E-03 0.  1.
         50    1    1    2    0    0  0.17990719017E-01 -0.14859493293E-02  0.13195775227E-01  0.50000500000E+01  0.50000000000E+01 0.  0.
         50    1    1    2    0    0 -0.17990719017E-01  0.14859493293E-02 -0.13195775227E-01  0.50000500000E+01  0.50000000000E+01 0.  0.
</event>
<event>
 4    1  0.4967105E-021  0.5000050E+01  0.7818608E-02  0.2136455E+00
        -11   -1    0    0    0    0  0.00000000000E+00  0.00000000000E+00  0.50000499739E+01  0.50000500000E+01  0.51100000000E-03 0. -1.
         11   -1    0    0    0    0 -0.00000000000E+00 -0.00000000000E+00 -0.50000499739E+01  0.50000500000E+01  0.51100000000E-03 0.  1.
         50    1    1    2    0    0  0.25944678983E-02  0.14230343238E-01 -0.17051937357E-01  0.50000500000E+01  0.50000000000E+01 0.  1.
         50    1    1    2    0    0 -0.25944678983E-02 -0.14230343238E-01  0.17051937357E-01  0.50000500000E+01  0.50000000000E+01 0. -1.
</event>
<event>
 4    1  0.4967105E-021  0.5000050E+01  0.7818608E-02  0.2136455E+00
        -11   -1    0    0    0    0  0.00000000000E+00  0.00000000000E+00  0.50000499739E+01  0.50000500000E+01  0.51100000000E-03 0. -1.
         11   -1    0    0    0    0 -0.00000000000E+00 -0.00000000000E+00 -0.50000499739E+01  0.50000500000E+01  0.51100000000E-03 0.  1.
         50    1    1    2    0    0 -0.11752044104E-01  0.10410686886E-01  0.15921983480E-01  0.50000500000E+01  0.50000000000E+01 0.  0.
         50    1    1    2    0    0  0.11752044104E-01 -0.10410686886E-01 -0.15921983480E-01  0.50000500000E+01  0.50000000000E+01 0.  0.
</event>
<event>
 4    1  0.4967105E-021  0.5000050E+01  0.7818608E-02  0.2136455E+00
        -11   -1    0    0    0    0  0.00000000000E+00  0.00000000000E+00  0.50000499739E+01  0.50000500000E+01  0.51100000000E-03 0. -1.
         11   -1    0    0    0    0 -0.00000000000E+00 -0.00000000000E+00 -0.50000499739E+01  0.50000500000E+01  0.51100000000E-03 0.  1.
         50    1    1    2    0    0  0.44737175615E-02 -0.16743700680E-01 -0.14129290100E-01  0.50000500000E+01  0.50000000000E+01 0.  1.
         50    1    1    2    0    0 -0.44737175615E-02  0.16743700680E-01  0.14129290100E-01  0.50000500000E+01  0.50000000000E+01 0. -1.
</event>
<event>
 4    1  0.4967105E-021  0.5000050E+01  0.7818608E-02  0.2136455E+00
        -11   -1    0    0    0    0  0.00000000000E+00  0.00000000000E+00  0.50000499739E+01  0.50000500000E+01  0.51100000000E-03 0.  1.
         11   -1    0    0    0    0 -0.00000000000E+00 -0.00000000000E+00 -0.50000499739E+01  0.50000500000E+01  0.51100000000E-03 0. -1.
         50    1    1    2    0    0  0.12629825081E-01  0.74228176322E-02 -0.16893543051E-01  0.50000500000E+01  0.50000000000E+01 0. -1.
         50    1    1    2    0    0 -0.12629825081E-01 -0.74228176322E-02  0.16893543051E-01  0.50000500000E+01  0.50000000000E+01 0.  1.
</event>
<event>
 4    1  0.4967105E-021  0.5000050E+01  0.7818608E-02  0.2136455E+00
        -11   -1    0    0    0    0  0.00000000000E+00  0.00000000000E+00  0.50000499739E+01  0.50000500000E+01  0.51100000000E-03 0.  1.
         11   -1    0    0    0    0 -0.00000000000E+00 -0.00000000000E+00 -0.50000499739E+01  0.50000500000E+01  0.51100000000E-03 0. -1.
         50    1    1    2    0    0 -0.13503732909E-01  0.17381761206E-01 -0.39403140577E-02  0.50000500000E+01  0.50000000000E+01 0.  1.
         50    1    1    2    0    0  0.13503732909E-01 -0.17381761206E-01  0.39403140577E-02  0.50000500000E+01  0.50000000000E+01 0.  0.
</event>
<event>
 4    1  0.4967105E-021  0.5000050E+01  0.7818608E-02  0.2136455E+00
        -11   -1    0    0    0    0  0.00000000000E+00  0.00000000000E+00  0.50000499739E+01  0.50000500000E+01  0.51100000000E-03 0. -1.
         11   -1    0    0    0    0 -0.00000000000E+00 -0.00000000000E+00 -0.50000499739E+01  0.50000500000E+01  0.51100000000E-03 0.  1.
         50    1    1    2    0    0  0.55795052975E-02  0.21095097229E-01 -0.48855392244E-02  0.50000500000E+01  0.50000000000E+01 0. -1.
         50    1    1    2    0    0 -0.55795052975E-02 -0.21095097229E-01  0.48855392244E-02  0.50000500000E+01  0.50000000000E+01 0.  0.
</event>
<event>
 4    1  0.4967105E-021  0.5000050E+01  0.7818608E-02  0.2136455E+00
        -11   -1    0    0    0    0  0.00000000000E+00  0.00000000000E+00  0.50000499739E+01  0.50000500000E+01  0.51100000000E-03 0.  1.
         11   -1    0    0    0    0 -0.00000000000E+00 -0.00000000000E+00 -0.50000499739E+01  0.50000500000E+01  0.51100000000E-03 0. -1.
         50    1    1    2    0    0  0.13398262342E-01  0.15606010869E-01 -0.87716298925E-02  0.50000500000E+01  0.50000000000E+01 0. -1.
         50    1    1    2    0    0 -0.13398262342E-01 -0.15606010869E-01  0.87716298925E-02  0.50000500000E+01  0.50000000000E+01 0.  1.
</event>
<event>
 4    1  0.4967105E-021  0.5000050E+01  0.7818608E-02  0.2136455E+00
        -11   -1    0    0    0    0  0.00000000000E+00  0.00000000000E+00  0.50000499739E+01  0.50000500000E+01  0.51100000000E-03 0. -1.
         11   -1    0    0    0    0 -0.00000000000E+00 -0.00000000000E+00 -0.50000499739E+01  0.50000500000E+01  0.51100000000E-03 0.  1.
         50    1    1    2    0    0 -0.16558910829E-01 -0.72855798427E-02 -0.13142499706E-01  0.50000500000E+01  0.50000000000E+01 0.  1.
         50    1    1    2    0    0  0.16558910829E-01  0.72855798427E-02  0.13142499706E-01  0.50000500000E+01  0.50000000000E+01 0. -1.
</event>
<event>
 4    1  0.4967105E-021  0.5000050E+01  0.7818608E-02  0.2136455E+00
        -11   -1    0    0    0    0  0.00000000000E+00  0.00000000000E+00  0.50000499739E+01  0.50000500000E+01  0.51100000000E-03 0. -1.
         11   -1    0    0    0    0 -0.00000000000E+00 -0.00000000000E+00 -0.50000499739E+01  0.50000500000E+01  0.51100000000E-03 0.  1.
         50    1    1    2    0    0  0.21708165812E-01  0.43843062411E-02  0.30880245887E-02  0.50000500000E+01  0.50000000000E+01 0.  1.
         50    1    1    2    0    0 -0.21708165812E-01 -0.43843062411E-02 -0.30880245887E-02  0.50000500000E+01  0.50000000000E+01 0. -1.
</event>
<event>
 4    1  0.4967105E-021  0.5000050E+01  0.7818608E-02  0.2136455E+00
        -11   -1    0    0    0    0  0.00000000000E+00  0.00000000000E+00  0.50000499739E+01  0.50000500000E+01  0.51100000000E-03 0. -1.
         11   -1    0    0    0    0 -0.00000000000E+00 -0.00000000000E+00 -0.50000499739E+01  0.50000500000E+01  0.51100000000E-03 0.  1.
         50    1    1    2    0    0 -0.13139705920E-01  0.11601676285E-01  0.13883505886E-01  0.50000500000E+01  0.50000000000E+01 0. -1.
         50    1    1    2    0    0  0.13139705920E-01 -0.11601676285E-01 -0.13883505886E-01  0.50000500000E+01  0.50000000000E+01 0.  1.
</event>
<event>
 4    1  0.4967105E-021  0.5000050E+01  0.7818608E-02  0.2136455E+00
        -11   -1    0    0    0    0  0.00000000000E+00  0.00000000000E+00  0.50000499739E+01  0.50000500000E+01  0.51100000000E-03 0.  1.
         11   -1    0    0    0    0 -0.00000000000E+00 -0.00000000000E+00 -0.50000499739E+01  0.50000500000E+01  0.51100000000E-03 0. -1.
         50    1    1    2    0    0  0.17769006565E-01 -0.75214616510E-02 -0.11300111518E-01  0.50000500000E+01  0.50000000000E+01 0. -1.
         50    1    1    2    0    0 -0.17769006565E-01  0.75214616510E-02  0.11300111518E-01  0.50000500000E+01  0.50000000000E+01 0.  1.
</event>
<event>
 4    1  0.4967105E-021  0.5000050E+01  0.7818608E-02  0.2136455E+00
        -11   -1    0    0    0    0  0.00000000000E+00  0.00000000000E+00  0.50000499739E+01  0.50000500000E+01  0.51100000000E-03 0.  1.
         11   -1    0    0    0    0 -0.00000000000E+00 -0.00000000000E+00 -0.50000499739E+01  0.50000500000E+01  0.51100000000E-03 0. -1.
         50    1    1    2    0    0 -0.75662540612E-02  0.37821278638E-02  0.20699029163E-01  0.50000500000E+01  0.50000000000E+01 0.  0.
         50    1    1    2    0    0  0.75662540612E-02 -0.37821278638E-02 -0.20699029163E-01  0.50000500000E+01  0.50000000000E+01 0. -1.
</event>
<event>
 4    1  0.4967105E-021  0.5000050E+01  0.7818608E-02  0.2136455E+00
        -11   -1    0    0    0    0  0.00000000000E+00  0.00000000000E+00  0.50000499739E+01  0.50000500000E+01  0.51100000000E-03 0. -1.
         11   -1    0    0    0    0 -0.00000000000E+00 -0.00000000000E+00 -0.50000499739E+01  0.50000500000E+01  0.51100000000E-03 0.  1.
         50    1    1    2    0    0 -0.14870695670E-02  0.92397174091E-02  0.20308095585E-01  0.50000500000E+01  0.50000000000E+01 0.  0.
         50    1    1    2    0    0  0.14870695670E-02 -0.92397174091E-02 -0.20308095585E-01  0.50000500000E+01  0.50000000000E+01 0.  1.
</event>
<event>
 4    1  0.4967105E-021  0.5000050E+01  0.7818608E-02  0.2136455E+00
        -11   -1    0    0    0    0  0.00000000000E+00  0.00000000000E+00  0.50000499739E+01  0.50000500000E+01  0.51100000000E-03 0.  1.
         11   -1    0    0    0    0 -0.00000000000E+00 -0.00000000000E+00 -0.50000499739E+01  0.50000500000E+01  0.51100000000E-03 0. -1.
         50    1    1    2    0    0  0.99258423124E-02 -0.18522992906E-01  0.76406078420E-02  0.50000500000E+01  0.50000000000E+01 0.  0.
         50    1    1    2    0    0 -0.99258423124E-02  0.18522992906E-01 -0.76406078420E-02  0.50000500000E+01  0.50000000000E+01 0.  1.
</event>
<event>
 4    1  0.4967105E-021  0.5000050E+01  0.7818608E-02  0.2136455E+00
        -11   -1    0    0    0    0  0.00000000000E+00  0.00000000000E+00  0.50000499739E+01  0.50000500000E+01  0.51100000000E-03 0. -1.
         11   -1    0    0    0    0 -0.00000000000E+00 -0.00000000000E+00 -0.50000499739E+01  0.50000500000E+01  0.51100000000E-03 0.  1.
         50    1    1    2    0    0  0.16592141227E-01 -0.11995673087E-01  0.89892812096E-02  0.50000500000E+01  0.50000000000E+01 0.  0.
         50    1    1    2    0    0 -0.16592141227E-01  0.11995673087E-01 -0.89892812096E-02  0.50000500000E+01  0.50000000000E+01 0. -1.
</event>
<event>
 4    1  0.4967105E-021  0.5000050E+01  0.7818608E-02  0.2136455E+00
        -11   -1    0    0    0    0  0.00000000000E+00  0.00000000000E+00  0.50000499739E+01  0.50000500000E+01  0.51100000000E-03 0.  1.
         11   -1    0    0    0    0 -0.00000000000E+00 -0.00000000000E+00 -0.50000499739E+01  0.50000500000E+01  0.51100000000E-03 0. -1.
         50    1    1    2    0    0 -0.30077737159E-02  0.14991757479E-01 -0.16315728760E-01  0.50000500000E+01  0.50000000000E+01 0.  1.
         50    1    1    2    0    0  0.30077737159E-02 -0.14991757479E-01  0.16315728760E-01  0.50000500000E+01  0.50000000000E+01 0.  0.
</event>
<event>
 4    1  0.4967105E-021  0.5000050E+01  0.7818608E-02  0.2136455E+00
        -11   -1    0    0    0    0  0.00000000000E+00  0.00000000000E+00  0.50000499739E+01  0.50000500000E+01  0.51100000000E-03 0. -1.
         11   -1    0    0    0    0 -0.00000000000E+00 -0.00000000000E+00 -0.50000499739E+01  0.50000500000E+01  0.51100000000E-03 0.  1.
         50    1    1    2    0    0  0.70049160674E-02  0.19342559298E-01  0.87635067579E-02  0.50000500000E+01  0.50000000000E+01 0.  0.
         50    1    1    2    0    0 -0.70049160674E-02 -0.19342559298E-01 -0.87635067579E-02  0.50000500000E+01  0.50000000000E+01 0. -1.
</event>
<event>
 4    1  0.4967105E-021  0.5000050E+01  0.7818608E-02  0.2136455E+00
        -11   -1    0    0    0    0  0.00000000000E+00  0.00000000000E+00  0.50000499739E+01  0.50000500000E+01  0.51100000000E-03 0.  1.
         11   -1    0    0    0    0 -0.00000000000E+00 -0.00000000000E+00 -0.50000499739E+01  0.50000500000E+01  0.51100000000E-03 0. -1.
         50    1    1    2    0    0 -0.12476715132E-01  0.12448952217E-01 -0.13760729204E-01  0.50000500000E+01  0.50000000000E+01 0. -1.
         50    1    1    2    0    0  0.12476715132E-01 -0.12448952217E-01  0.13760729204E-01  0.50000500000E+01  0.50000000000E+01 0.  1.
</event>
<event>
 4    1  0.4967105E-021  0.5000050E+01  0.7818608E-02  0.2136455E+00
        -11   -1    0    0    0    0  0.00000000000E+00  0.00000000000E+00  0.50000499739E+01  0.50000500000E+01  0.51100000000E-03 0. -1.
         11   -1    0    0    0    0 -0.00000000000E+00 -0.00000000000E+00 -0.50000499739E+01  0.50000500000E+01  0.51100000000E-03 0.  1.
         50    1    1    2    0    0 -0.10428222779E-01 -0.19145714563E-01  0.49695355459E-02  0.50000500000E+01  0.50000000000E+01 0.  1.
         50    1    1    2    0    0  0.10428222779E-01  0.19145714563E-01 -0.49695355459E-02  0.50000500000E+01  0.50000000000E+01 0.  0.
</event>
<event>
 4    1  0.4967105E-021  0.5000050E+01  0.7818608E-02  0.2136455E+00
        -11   -1    0    0    0    0  0.00000000000E+00  0.00000000000E+00  0.50000499739E+01  0.50000500000E+01  0.51100000000E-03 0. -1.
         11   -1    0    0    0    0 -0.00000000000E+00 -0.00000000000E+00 -0.50000499739E+01  0.50000500000E+01  0.51100000000E-03 0.  1.
         50    1    1    2    0    0  0.84449822655E-02 -0.60495390649E-02 -0.19801208338E-01  0.50000500000E+01  0.50000000000E+01 0.  0.
         50    1    1    2    0    0 -0.84449822655E-02  0.60495390649E-02  0.19801208338E-01  0.50000500000E+01  0.50000000000E+01 0.  0.
</event>
<event>
 4    1  0.4967105E-021  0.5000050E+01  0.7818608E-02  0.2136455E+00
        -11   -1    0    0    0    0  0.00000000000E+00  0.00000000000E+00  0.50000499739E+01  0.50000500000E+01  0.51100000000E-03 0. -1.
         11   -1    0    0    0    0 -0.00000000000E+00 -0.00000000000E+00 -0.50000499739E+01  0.50000500000E+01  0.51100000000E-03 0.  1.
         50    1    1    2    0    0 -0.18908851216E-01  0.57461976531E-02 -0.10461312451E-01  0.50000500000E+01  0.50000000000E+01 0.  0.
         50    1    1    2    0    0  0.18908851216E-01 -0.57461976531E-02  0.10461312451E-01  0.50000500000E+01  0.50000000000E+01 0.  1.
</event>
<event>
 4    1  0.4967105E-021  0.5000050E+01  0.7818608E-02  0.2136455E+00
        -11   -1    0    0    0    0  0.00000000000E+00  0.00000000000E+00  0.50000499739E+01  0.50000500000E+01  0.51100000000E-03 0. -1.
         11   -1    0    0    0    0 -0.00000000000E+00 -0.00000000000E+00 -0.50000499739E+01  0.50000500000E+01  0.51100000000E-03 0.  1.
         50    1    1    2    0    0  0.14649952406E-01  0.96551217954E-02 -0.13862179396E-01  0.50000500000E+01  0.50000000000E+01 0.  1.
         50    1    1    2    0    0 -0.14649952406E-01 -0.96551217954E-02  0.13862179396E-01  0.50000500000E+01  0.50000000000E+01 0. -1.
</event>
<event>
 4    1  0.4967105E-021  0.5000050E+01  0.7818608E-02  0.2136455E+00
        -11   -1    0    0    0    0  0.00000000000E+00  0.00000000000E+00  0.50000499739E+01  0.50000500000E+01  0.51100000000E-03 0. -1.
         11   -1    0    0    0    0 -0.00000000000E+00 -0.00000000000E+00 -0.50000499739E+01  0.50000500000E+01  0.51100000000E-03 0.  1.
         50    1    1    2    0    0  0.83119739798E-02  0.18931132861E-01 -0.85162079096E-02  0.50000500000E+01  0.50000000000E+01 0.  1.
         50    1    1    2    0    0 -0.83119739798E-02 -0.18931132861E-01  0.85162079096E-02  0.50000500000E+01  0.50000000000E+01 0. -1.
</event>
<event>
 4    1  0.4967105E-021  0.5000050E+01  0.7818608E-02  0.2136455E+00
        -11   -1    0    0    0    0  0.00000000000E+00  0.00000000000E+00  0.50000499739E+01  0.50000500000E+01  0.51100000000E-03 0.  1.
         11   -1    0    0    0    0 -0.00000000000E+00 -0.00000000000E+00 -0.50000499739E+01  0.50000500000E+01  0.51100000000E-03 0. -1.
         50    1    1    2    0    0  0.21166343591E-01 -0.21316326539E-02  0.68879997983E-02  0.50000500000E+01  0.50000000000E+01 0.  1.
         50    1    1    2    0    0 -0.21166343591E-01  0.21316326539E-02 -0.68879997983E-02  0.50000500000E+01  0.50000000000E+01 0.  0.
</event>
<event>
 4    1  0.4967105E-021  0.5000050E+01  0.7818608E-02  0.2136455E+00
        -11   -1    0    0    0    0  0.00000000000E+00  0.00000000000E+00  0.50000499739E+01  0.50000500000E+01  0.51100000000E-03 0. -1.
         11   -1    0    0    0    0 -0.00000000000E+00 -0.00000000000E+00 -0.50000499739E+01  0.50000500000E+01  0.51100000000E-03 0.  1.
         50    1    1    2    0    0  0.15978274410E-01 -0.92521711893E-02 -0.12613269805E-01  0.50000500000E+01  0.50000000000E+01 0. -1.
         50    1    1    2    0    0 -0.15978274410E-01  0.92521711893E-02  0.12613269805E-01  0.50000500000E+01  0.50000000000E+01 0. -1.
</event>
<event>
 4    1  0.4967105E-021  0.5000050E+01  0.7818608E-02  0.2136455E+00
        -11   -1    0    0    0    0  0.00000000000E+00  0.00000000000E+00  0.50000499739E+01  0.50000500000E+01  0.51100000000E-03 0.  1.
         11   -1    0    0    0    0 -0.00000000000E+00 -0.00000000000E+00 -0.50000499739E+01  0.50000500000E+01  0.51100000000E-03 0. -1.
         50    1    1    2    0    0 -0.10144725847E-01  0.82380024601E-02 -0.18144485469E-01  0.50000500000E+01  0.50000000000E+01 0.  0.
         50    1    1    2    0    0  0.10144725847E-01 -0.82380024601E-02  0.18144485469E-01  0.50000500000E+01  0.50000000000E+01 0.  0.
</event>
<event>
 4    1  0.4967105E-021  0.5000050E+01  0.7818608E-02  0.2136455E+00
        -11   -1    0    0    0    0  0.00000000000E+00  0.00000000000E+00  0.50000499739E+01  0.50000500000E+01  0.51100000000E-03 0. -1.
         11   -1    0    0    0    0 -0.00000000000E+00 -0.00000000000E+00 -0.50000499739E+01  0.50000500000E+01  0.51100000000E-03 0.  1.
         50    1    1    2    0    0 -0.18345195406E-02 -0.13886119210E-01 -0.17430224650E-01  0.50000500000E+01  0.50000000000E+01 0. -1.
         50    1    1    2    0    0  0.18345195406E-02  0.13886119210E-01  0.17430224650E-01  0.50000500000E+01  0.50000000000E+01 0. -1.
</event>
<event>
 4    1  0.4967105E-021  0.5000050E+01  0.7818608E-02  0.2136455E+00
        -11   -1    0    0    0    0  0.00000000000E+00  0.00000000000E+00  0.50000499739E+01  0.50000500000E+01  0.51100000000E-03 0. -1.
         11   -1    0    0    0    0 -0.00000000000E+00 -0.00000000000E+00 -0.50000499739E+01  0.50000500000E+01  0.51100000000E-03 0.  1.
         50    1    1    2    0    0 -0.49364463885E-02  0.59206549587E-02 -0.20989993852E-01  0.50000500000E+01  0.50000000000E+01 0.  0.
         50    1    1    2    0    0  0.49364463885E-02 -0.59206549587E-02  0.20989993852E-01  0.50000500000E+01  0.50000000000E+01 0. -1.
</event>
<event>
 4    1  0.4967105E-021  0.5000050E+01  0.7818608E-02  0.2136455E+00
        -11   -1    0    0    0    0  0.00000000000E+00  0.00000000000E+00  0.50000499739E+01  0.50000500000E+01  0.51100000000E-03 0.  1.
         11   -1    0    0    0    0 -0.00000000000E+00 -0.00000000000E+00 -0.50000499739E+01  0.50000500000E+01  0.51100000000E-03 0. -1.
         50    1    1    2    0    0 -0.74671011310E-02  0.92068368960E-02 -0.18959932887E-01  0.50000500000E+01  0.50000000000E+01 0. -1.
         50    1    1    2    0    0  0.74671011310E-02 -0.92068368960E-02  0.18959932887E-01  0.50000500000E+01  0.50000000000E+01 0.  1.
</event>
<event>
 4    1  0.4967105E-021  0.5000050E+01  0.7818608E-02  0.2136455E+00
        -11   -1    0    0    0    0  0.00000000000E+00  0.00000000000E+00  0.50000499739E+01  0.50000500000E+01  0.51100000000E-03 0. -1.
         11   -1    0    0    0    0 -0.00000000000E+00 -0.00000000000E+00 -0.50000499739E+01  0.50000500000E+01  0.51100000000E-03 0.  1.
         50    1    1    2    0    0  0.12629521574E-01 -0.26691120071E-02  0.18258519269E-01  0.50000500000E+01  0.50000000000E+01 0. -1.
         50    1    1    2    0    0 -0.12629521574E-01  0.26691120071E-02 -0.18258519269E-01  0.50000500000E+01  0.50000000000E+01 0. -1.
</event>
<event>
 4    1  0.4967105E-021  0.5000050E+01  0.7818608E-02  0.2136455E+00
        -11   -1    0    0    0    0  0.00000000000E+00  0.00000000000E+00  0.50000499739E+01  0.50000500000E+01  0.51100000000E-03 0. -1.
         11   -1    0    0    0    0 -0.00000000000E+00 -0.00000000000E+00 -0.50000499739E+01  0.50000500000E+01  0.51100000000E-03 0.  1.
         50    1    1    2    0    0  0.12595084374E-01 -0.18285406475E-01  0.26476894916E-02  0.50000500000E+01  0.50000000000E+01 0.  1.
         50    1    1    2    0    0 -0.12595084374E-01  0.18285406475E-01 -0.26476894916E-02  0.50000500000E+01  0.50000000000E+01 0.  0.
</event>
<event>
 4    1  0.4967105E-021  0.5000050E+01  0.7818608E-02  0.2136455E+00
        -11   -1    0    0    0    0  0.00000000000E+00  0.00000000000E+00  0.50000499739E+01  0.50000500000E+01  0.51100000000E-03 0.  1.
         11   -1    0    0    0    0 -0.00000000000E+00 -0.00000000000E+00 -0.50000499739E+01  0.50000500000E+01  0.51100000000E-03 0. -1.
         50    1    1    2    0    0  0.13454165544E-01  0.14619984547E-01 -0.10258848929E-01  0.50000500000E+01  0.50000000000E+01 0.  1.
         50    1    1    2    0    0 -0.13454165544E-01 -0.14619984547E-01  0.10258848929E-01  0.50000500000E+01  0.50000000000E+01 0.  0.
</event>
<event>
 4    1  0.4967105E-021  0.5000050E+01  0.7818608E-02  0.2136455E+00
        -11   -1    0    0    0    0  0.00000000000E+00  0.00000000000E+00  0.50000499739E+01  0.50000500000E+01  0.51100000000E-03 0. -1.
         11   -1    0    0    0    0 -0.00000000000E+00 -0.00000000000E+00 -0.50000499739E+01  0.50000500000E+01  0.51100000000E-03 0.  1.
         50    1    1    2    0    0 -0.48547251611E-02 -0.13385902145E-02  0.21786287427E-01  0.50000500000E+01  0.50000000000E+01 0.  0.
         50    1    1    2    0    0  0.48547251611E-02  0.13385902145E-02 -0.21786287427E-01  0.50000500000E+01  0.50000000000E+01 0.  1.
</event>
<event>
 4    1  0.4967105E-021  0.5000050E+01  0.7818608E-02  0.2136455E+00
        -11   -1    0    0    0    0  0.00000000000E+00  0.00000000000E+00  0.50000499739E+01  0.50000500000E+01  0.51100000000E-03 0. -1.
         11   -1    0    0    0    0 -0.00000000000E+00 -0.00000000000E+00 -0.50000499739E+01  0.50000500000E+01  0.51100000000E-03 0.  1.
         50    1    1    2    0    0  0.23495398975E-02  0.26206203201E-02 -0.22081995186E-01  0.50000500000E+01  0.50000000000E+01 0.  1.
         50    1    1    2    0    0 -0.23495398975E-02 -0.26206203201E-02  0.22081995186E-01  0.50000500000E+01  0.50000000000E+01 0.  0.
</event>
<event>
 4    1  0.4967105E-021  0.5000050E+01  0.7818608E-02  0.2136455E+00
        -11   -1    0    0    0    0  0.00000000000E+00  0.00000000000E+00  0.50000499739E+01  0.50000500000E+01  0.51100000000E-03 0.  1.
         11   -1    0    0    0    0 -0.00000000000E+00 -0.00000000000E+00 -0.50000499739E+01  0.50000500000E+01  0.51100000000E-03 0. -1.
         50    1    1    2    0    0  0.16478633592E-02  0.21947579649E-01  0.39485179382E-02  0.50000500000E+01  0.50000000000E+01 0.  1.
         50    1    1    2    0    0 -0.16478633592E-02 -0.21947579649E-01 -0.39485179382E-02  0.50000500000E+01  0.50000000000E+01 0.  1.
</event>
<event>
 4    1  0.4967105E-021  0.5000050E+01  0.7818608E-02  0.2136455E+00
        -11   -1    0    0    0    0  0.00000000000E+00  0.00000000000E+00  0.50000499739E+01  0.50000500000E+01  0.51100000000E-03 0. -1.
         11   -1    0    0    0    0 -0.00000000000E+00 -0.00000000000E+00 -0.50000499739E+01  0.50000500000E+01  0.51100000000E-03 0.  1.
         50    1    1    2    0    0  0.37975012489E-02  0.22035854370E-01 -0.51053425670E-04  0.50000500000E+01  0.50000000000E+01 0. -1.
         50    1    1    2    0    0 -0.37975012489E-02 -0.22035854370E-01  0.51053425670E-04  0.50000500000E+01  0.50000000000E+01 0.  1.
</event>
<event>
 4    1  0.4967105E-021  0.5000050E+01  0.7818608E-02  0.2136455E+00
        -11   -1    0    0    0    0  0.00000000000E+00  0.00000000000E+00  0.50000499739E+01  0.50000500000E+01  0.51100000000E-03 0. -1.
         11   -1    0    0    0    0 -0.00000000000E+00 -0.00000000000E+00 -0.50000499739E+01  0.50000500000E+01  0.51100000000E-03 0.  1.
         50    1    1    2    0    0 -0.17862926444E-01  0.15980774107E-02 -0.13355317572E-01  0.50000500000E+01  0.50000000000E+01 0. -1.
         50    1    1    2    0    0  0.17862926444E-01 -0.15980774107E-02  0.13355317572E-01  0.50000500000E+01  0.50000000000E+01 0. -1.
</event>
<event>
 4    1  0.4967105E-021  0.5000050E+01  0.7818608E-02  0.2136455E+00
        -11   -1    0    0    0    0  0.00000000000E+00  0.00000000000E+00  0.50000499739E+01  0.50000500000E+01  0.51100000000E-03 0. -1.
         11   -1    0    0    0    0 -0.00000000000E+00 -0.00000000000E+00 -0.50000499739E+01  0.50000500000E+01  0.51100000000E-03 0.  1.
         50    1    1    2    0    0  0.15039972776E-01 -0.16203724691E-01 -0.33527637929E-02  0.50000500000E+01  0.50000000000E+01 0.  0.
         50    1    1    2    0    0 -0.15039972776E-01  0.16203724691E-01  0.33527637929E-02  0.50000500000E+01  0.50000000000E+01 0.  1.
</event>
<event>
 4    1  0.4967105E-021  0.5000050E+01  0.7818608E-02  0.2136455E+00
        -11   -1    0    0    0    0  0.00000000000E+00  0.00000000000E+00  0.50000499739E+01  0.50000500000E+01  0.51100000000E-03 0. -1.
         11   -1    0    0    0    0 -0.00000000000E+00 -0.00000000000E+00 -0.50000499739E+01  0.50000500000E+01  0.51100000000E-03 0.  1.
         50    1    1    2    0    0 -0.15516290802E-01 -0.14863393561E-01 -0.61908603280E-02  0.50000500000E+01  0.50000000000E+01 0. -1.
         50    1    1    2    0    0  0.15516290802E-01  0.14863393561E-01  0.61908603280E-02  0.50000500000E+01  0.50000000000E+01 0.  0.
</event>
<event>
 4    1  0.4967105E-021  0.5000050E+01  0.7818608E-02  0.2136455E+00
        -11   -1    0    0    0    0  0.00000000000E+00  0.00000000000E+00  0.50000499739E+01  0.50000500000E+01  0.51100000000E-03 0.  1.
         11   -1    0    0    0    0 -0.00000000000E+00 -0.00000000000E+00 -0.50000499739E+01  0.50000500000E+01  0.51100000000E-03 0. -1.
         50    1    1    2    0    0  0.18121614322E-01  0.81006711880E-02  0.10295082353E-01  0.50000500000E+01  0.50000000000E+01 0.  1.
         50    1    1    2    0    0 -0.18121614322E-01 -0.81006711880E-02 -0.10295082353E-01  0.50000500000E+01  0.50000000000E+01 0. -1.
</event>
<event>
 4    1  0.4967105E-021  0.5000050E+01  0.7818608E-02  0.2136455E+00
        -11   -1    0    0    0    0  0.00000000000E+00  0.00000000000E+00  0.50000499739E+01  0.50000500000E+01  0.51100000000E-03 0. -1.
         11   -1    0    0    0    0 -0.00000000000E+00 -0.00000000000E+00 -0.50000499739E+01  0.50000500000E+01  0.51100000000E-03 0.  1.
         50    1    1    2    0    0 -0.13849498642E-01 -0.20813236996E-02  0.17431637302E-01  0.50000500000E+01  0.50000000000E+01 0.  1.
         50    1    1    2    0    0  0.13849498642E-01  0.20813236996E-02 -0.17431637302E-01  0.50000500000E+01  0.50000000000E+01 0.  1.
</event>
<event>
 4    1  0.4967105E-021  0.5000050E+01  0.7818608E-02  0.2136455E+00
        -11   -1    0    0    0    0  0.00000000000E+00  0.00000000000E+00  0.50000499739E+01  0.50000500000E+01  0.51100000000E-03 0.  1.
         11   -1    0    0    0    0 -0.00000000000E+00 -0.00000000000E+00 -0.50000499739E+01  0.50000500000E+01  0.51100000000E-03 0. -1.
         50    1    1    2    0    0 -0.18788935099E-02 -0.70436708970E-02 -0.21139038755E-01  0.50000500000E+01  0.50000000000E+01 0. -1.
         50    1    1    2    0    0  0.18788935099E-02  0.70436708970E-02  0.21139038755E-01  0.50000500000E+01  0.50000000000E+01 0.  0.
</event>
<event>
 4    1  0.4967105E-021  0.5000050E+01  0.7818608E-02  0.2136455E+00
        -11   -1    0    0    0    0  0.00000000000E+00  0.00000000000E+00  0.50000499739E+01  0.50000500000E+01  0.51100000000E-03 0.  1.
         11   -1    0    0    0    0 -0.00000000000E+00 -0.00000000000E+00 -0.50000499739E+01  0.50000500000E+01  0.51100000000E-03 0. -1.
         50    1    1    2    0    0  0.15167487816E-01 -0.15007770395E-01  0.66870502551E-02  0.50000500000E+01  0.50000000000E+01 0.  1.
         50    1    1    2    0    0 -0.15167487816E-01  0.15007770395E-01 -0.66870502551E-02  0.50000500000E+01  0.50000000000E+01 0. -1.
</event>
<event>
 4    1  0.4967105E-021  0.5000050E+01  0.7818608E-02  0.2136455E+00
        -11   -1    0    0    0    0  0.00000000000E+00  0.00000000000E+00  0.50000499739E+01  0.50000500000E+01  0.51100000000E-03 0.  1.
         11   -1    0    0    0    0 -0.00000000000E+00 -0.00000000000E+00 -0.50000499739E+01  0.50000500000E+01  0.51100000000E-03 0. -1.
         50    1    1    2    0    0  0.20841187051E-01 -0.57187748149E-02  0.57396025069E-02  0.50000500000E+01  0.50000000000E+01 0. -1.
         50    1    1    2    0    0 -0.20841187051E-01  0.57187748149E-02 -0.57396025069E-02  0.50000500000E+01  0.50000000000E+01 0.  0.
</event>
<event>
 4    1  0.4967105E-021  0.5000050E+01  0.7818608E-02  0.2136455E+00
        -11   -1    0    0    0    0  0.00000000000E+00  0.00000000000E+00  0.50000499739E+01  0.50000500000E+01  0.51100000000E-03 0.  1.
         11   -1    0    0    0    0 -0.00000000000E+00 -0.00000000000E+00 -0.50000499739E+01  0.50000500000E+01  0.51100000000E-03 0. -1.
         50    1    1    2    0    0 -0.55542773255E-02 -0.15830735349E-01  0.14783109338E-01  0.50000500000E+01  0.50000000000E+01 0.  1.
         50    1    1    2    0    0  0.55542773255E-02  0.15830735349E-01 -0.14783109338E-01  0.50000500000E+01  0.50000000000E+01 0.  1.
</event>
<event>
 4    1  0.4967105E-021  0.5000050E+01  0.7818608E-02  0.2136455E+00
        -11   -1    0    0    0    0  0.00000000000E+00  0.00000000000E+00  0.50000499739E+01  0.50000500000E+01  0.51100000000E-03 0.  1.
         11   -1    0    0    0    0 -0.00000000000E+00 -0.00000000000E+00 -0.50000499739E+01  0.50000500000E+01  0.51100000000E-03 0. -1.
         50    1    1    2    0    0 -0.21564842709E-01 -0.33685711890E-02 -0.48592990308E-02  0.50000500000E+01  0.50000000000E+01 0.  0.
         50    1    1    2    0    0  0.21564842709E-01  0.33685711890E-02  0.48592990308E-02  0.50000500000E+01  0.50000000000E+01 0.  0.
</event>
<event>
 4    1  0.4967105E-021  0.5000050E+01  0.7818608E-02  0.2136455E+00
        -11   -1    0    0    0    0  0.00000000000E+00  0.00000000000E+00  0.50000499739E+01  0.50000500000E+01  0.51100000000E-03 0.  1.
         11   -1    0    0    0    0 -0.00000000000E+00 -0.00000000000E+00 -0.50000499739E+01  0.50000500000E+01  0.51100000000E-03 0. -1.
         50    1    1    2    0    0  0.11484415044E-01  0.18621171502E-01 -0.46219782550E-02  0.50000500000E+01  0.50000000000E+01 0. -1.
         50    1    1    2    0    0 -0.11484415044E-01 -0.18621171502E-01  0.46219782550E-02  0.50000500000E+01  0.50000000000E+01 0.  0.
</event>
<event>
 4    1  0.4967105E-021  0.5000050E+01  0.7818608E-02  0.2136455E+00
        -11   -1    0    0    0    0  0.00000000000E+00  0.00000000000E+00  0.50000499739E+01  0.50000500000E+01  0.51100000000E-03 0.  1.
         11   -1    0    0    0    0 -0.00000000000E+00 -0.00000000000E+00 -0.50000499739E+01  0.50000500000E+01  0.51100000000E-03 0. -1.
         50    1    1    2    0    0  0.77697617305E-02  0.70869893768E-02 -0.19733420490E-01  0.50000500000E+01  0.50000000000E+01 0. -1.
         50    1    1    2    0    0 -0.77697617305E-02 -0.70869893768E-02  0.19733420490E-01  0.50000500000E+01  0.50000000000E+01 0.  0.
</event>
<event>
 4    1  0.4967105E-021  0.5000050E+01  0.7818608E-02  0.2136455E+00
        -11   -1    0    0    0    0  0.00000000000E+00  0.00000000000E+00  0.50000499739E+01  0.50000500000E+01  0.51100000000E-03 0.  1.
         11   -1    0    0    0    0 -0.00000000000E+00 -0.00000000000E+00 -0.50000499739E+01  0.50000500000E+01  0.51100000000E-03 0. -1.
         50    1    1    2    0    0 -0.13582210656E-02 -0.19891985012E-02 -0.22230628081E-01  0.50000500000E+01  0.50000000000E+01 0.  0.
         50    1    1    2    0    0  0.13582210656E-02  0.19891985012E-02  0.22230628081E-01  0.50000500000E+01  0.50000000000E+01 0.  1.
</event>
<event>
 4    1  0.4967105E-021  0.5000050E+01  0.7818608E-02  0.2136455E+00
        -11   -1    0    0    0    0  0.00000000000E+00  0.00000000000E+00  0.50000499739E+01  0.50000500000E+01  0.51100000000E-03 0. -1.
         11   -1    0    0    0    0 -0.00000000000E+00 -0.00000000000E+00 -0.50000499739E+01  0.50000500000E+01  0.51100000000E-03 0.  1.
         50    1    1    2    0    0 -0.49014134923E-02 -0.20214888665E-01 -0.82059077522E-02  0.50000500000E+01  0.50000000000E+01 0.  0.
         50    1    1    2    0    0  0.49014134923E-02  0.20214888665E-01  0.82059077522E-02  0.50000500000E+01  0.50000000000E+01 0.  1.
</event>
<event>
 4    1  0.4967105E-021  0.5000050E+01  0.7818608E-02  0.2136455E+00
        -11   -1    0    0    0    0  0.00000000000E+00  0.00000000000E+00  0.50000499739E+01  0.50000500000E+01  0.51100000000E-03 0. -1.
         11   -1    0    0    0    0 -0.00000000000E+00 -0.00000000000E+00 -0.50000499739E+01  0.50000500000E+01  0.51100000000E-03 0.  1.
         50    1    1    2    0    0 -0.10054056117E-02  0.11081581973E-01  0.19395623231E-01  0.50000500000E+01  0.50000000000E+01 0. -1.
         50    1    1    2    0    0  0.10054056117E-02 -0.11081581973E-01 -0.19395623231E-01  0.50000500000E+01  0.50000000000E+01 0.  1.
</event>
<event>
 4    1  0.4967105E-021  0.5000050E+01  0.7818608E-02  0.2136455E+00
        -11   -1    0    0    0    0  0.00000000000E+00  0.00000000000E+00  0.50000499739E+01  0.50000500000E+01  0.51100000000E-03 0. -1.
         11   -1    0    0    0    0 -0.00000000000E+00 -0.00000000000E+00 -0.50000499739E+01  0.50000500000E+01  0.51100000000E-03 0.  1.
         50    1    1    2    0    0 -0.10446371983E-01  0.19388753843E-01 -0.38667863702E-02  0.50000500000E+01  0.50000000000E+01 0.  1.
         50    1    1    2    0    0  0.10446371983E-01 -0.19388753843E-01  0.38667863702E-02  0.50000500000E+01  0.50000000000E+01 0.  1.
</event>
<event>
 4    1  0.4967105E-021  0.5000050E+01  0.7818608E-02  0.2136455E+00
        -11   -1    0    0    0    0  0.00000000000E+00  0.00000000000E+00  0.50000499739E+01  0.50000500000E+01  0.51100000000E-03 0. -1.
         11   -1    0    0    0    0 -0.00000000000E+00 -0.00000000000E+00 -0.50000499739E+01  0.50000500000E+01  0.51100000000E-03 0.  1.
         50    1    1    2    0    0 -0.13891748782E-01  0.17303552414E-01 -0.27584215841E-02  0.50000500000E+01  0.50000000000E+01 0. -1.
         50    1    1    2    0    0  0.13891748782E-01 -0.17303552414E-01  0.27584215841E-02  0.50000500000E+01  0.50000000000E+01 0.  1.
</event>
<event>
 4    1  0.4967105E-021  0.5000050E+01  0.7818608E-02  0.2136455E+00
        -11   -1    0    0    0    0  0.00000000000E+00  0.00000000000E+00  0.50000499739E+01  0.50000500000E+01  0.51100000000E-03 0.  1.
         11   -1    0    0    0    0 -0.00000000000E+00 -0.00000000000E+00 -0.50000499739E+01  0.50000500000E+01  0.51100000000E-03 0. -1.
         50    1    1    2    0    0  0.21224070914E-01  0.89882801556E-03 -0.69809327494E-02  0.50000500000E+01  0.50000000000E+01 0.  1.
         50    1    1    2    0    0 -0.21224070914E-01 -0.89882801556E-03  0.69809327494E-02  0.50000500000E+01  0.50000000000E+01 0.  1.
</event>
<event>
 4    1  0.4967105E-021  0.5000050E+01  0.7818608E-02  0.2136455E+00
        -11   -1    0    0    0    0  0.00000000000E+00  0.00000000000E+00  0.50000499739E+01  0.50000500000E+01  0.51100000000E-03 0.  1.
         11   -1    0    0    0    0 -0.00000000000E+00 -0.00000000000E+00 -0.50000499739E+01  0.50000500000E+01  0.51100000000E-03 0. -1.
         50    1    1    2    0    0  0.96682226037E-02  0.19897202829E-01 -0.32602593845E-02  0.50000500000E+01  0.50000000000E+01 0.  0.
         50    1    1    2    0    0 -0.96682226037E-02 -0.19897202829E-01  0.32602593845E-02  0.50000500000E+01  0.50000000000E+01 0. -1.
</event>
<event>
 4    1  0.4967105E-021  0.5000050E+01  0.7818608E-02  0.2136455E+00
        -11   -1    0    0    0    0  0.00000000000E+00  0.00000000000E+00  0.50000499739E+01  0.50000500000E+01  0.51100000000E-03 0.  1.
         11   -1    0    0    0    0 -0.00000000000E+00 -0.00000000000E+00 -0.50000499739E+01  0.50000500000E+01  0.51100000000E-03 0. -1.
         50    1    1    2    0    0  0.21468698048E-01 -0.33326785580E-02 -0.52906292390E-02  0.50000500000E+01  0.50000000000E+01 0. -1.
         50    1    1    2    0    0 -0.21468698048E-01  0.33326785580E-02  0.52906292390E-02  0.50000500000E+01  0.50000000000E+01 0. -1.
</event>
<event>
 4    1  0.4967105E-021  0.5000050E+01  0.7818608E-02  0.2136455E+00
        -11   -1    0    0    0    0  0.00000000000E+00  0.00000000000E+00  0.50000499739E+01  0.50000500000E+01  0.51100000000E-03 0. -1.
         11   -1    0    0    0    0 -0.00000000000E+00 -0.00000000000E+00 -0.50000499739E+01  0.50000500000E+01  0.51100000000E-03 0.  1.
         50    1    1    2    0    0  0.13911641431E-01 -0.17405285795E-01 -0.18774341719E-02  0.50000500000E+01  0.50000000000E+01 0.  1.
         50    1    1    2    0    0 -0.13911641431E-01  0.17405285795E-01  0.18774341719E-02  0.50000500000E+01  0.50000000000E+01 0. -1.
</event>
<event>
 4    1  0.4967105E-021  0.5000050E+01  0.7818608E-02  0.2136455E+00
        -11   -1    0    0    0    0  0.00000000000E+00  0.00000000000E+00  0.50000499739E+01  0.50000500000E+01  0.51100000000E-03 0. -1.
         11   -1    0    0    0    0 -0.00000000000E+00 -0.00000000000E+00 -0.50000499739E+01  0.50000500000E+01  0.51100000000E-03 0.  1.
         50    1    1    2    0    0 -0.60323690625E-02  0.53475694121E-02 -0.20857049764E-01  0.50000500000E+01  0.50000000000E+01 0.  1.
         50    1    1    2    0    0  0.60323690625E-02 -0.53475694121E-02  0.20857049764E-01  0.50000500000E+01  0.50000000000E+01 0. -1.
</event>
<event>
 4    1  0.4967105E-021  0.5000050E+01  0.7818608E-02  0.2136455E+00
        -11   -1    0    0    0    0  0.00000000000E+00  0.00000000000E+00  0.50000499739E+01  0.50000500000E+01  0.51100000000E-03 0.  1.
         11   -1    0    0    0    0 -0.00000000000E+00 -0.00000000000E+00 -0.50000499739E+01  0.50000500000E+01  0.51100000000E-03 0. -1.
         50    1    1    2    0    0 -0.19397471912E-01 -0.68262354240E-02  0.87831141035E-02  0.50000500000E+01  0.50000000000E+01 0.  0.
         50    1    1    2    0    0  0.19397471912E-01  0.68262354240E-02 -0.87831141035E-02  0.50000500000E+01  0.50000000000E+01 0.  0.
</event>
<event>
 4    1  0.4967105E-021  0.5000050E+01  0.7818608E-02  0.2136455E+00
        -11   -1    0    0    0    0  0.00000000000E+00  0.00000000000E+00  0.50000499739E+01  0.50000500000E+01  0.51100000000E-03 0.  1.
         11   -1    0    0    0    0 -0.00000000000E+00 -0.00000000000E+00 -0.50000499739E+01  0.50000500000E+01  0.51100000000E-03 0. -1.
         50    1    1    2    0    0  0.18185096105E-01 -0.37517790876E-02 -0.12459090389E-01  0.50000500000E+01  0.50000000000E+01 0.  1.
         50    1    1    2    0    0 -0.18185096105E-01  0.37517790876E-02  0.12459090389E-01  0.50000500000E+01  0.50000000000E+01 0.  0.
</event>
<event>
 4    1  0.4967105E-021  0.5000050E+01  0.7818608E-02  0.2136455E+00
        -11   -1    0    0    0    0  0.00000000000E+00  0.00000000000E+00  0.50000499739E+01  0.50000500000E+01  0.51100000000E-03 0.  1.
         11   -1    0    0    0    0 -0.00000000000E+00 -0.00000000000E+00 -0.50000499739E+01  0.50000500000E+01  0.51100000000E-03 0. -1.
         50    1    1    2    0    0 -0.82819716418E-02  0.20678187084E-01 -0.19555113540E-02  0.50000500000E+01  0.50000000000E+01 0. -1.
         50    1    1    2    0    0  0.82819716418E-02 -0.20678187084E-01  0.19555113540E-02  0.50000500000E+01  0.50000000000E+01 0.  1.
</event>
<event>
 4    1  0.4967105E-021  0.5000050E+01  0.7818608E-02  0.2136455E+00
        -11   -1    0    0    0    0  0.00000000000E+00  0.00000000000E+00  0.50000499739E+01  0.50000500000E+01  0.51100000000E-03 0.  1.
         11   -1    0    0    0    0 -0.00000000000E+00 -0.00000000000E+00 -0.50000499739E+01  0.50000500000E+01  0.51100000000E-03 0. -1.
         50    1    1    2    0    0 -0.85841593752E-03 -0.86353705665E-02  0.20608153660E-01  0.50000500000E+01  0.50000000000E+01 0.  0.
         50    1    1    2    0    0  0.85841593752E-03  0.86353705665E-02 -0.20608153660E-01  0.50000500000E+01  0.50000000000E+01 0.  0.
</event>
<event>
 4    1  0.4967105E-021  0.5000050E+01  0.7818608E-02  0.2136455E+00
        -11   -1    0    0    0    0  0.00000000000E+00  0.00000000000E+00  0.50000499739E+01  0.50000500000E+01  0.51100000000E-03 0. -1.
         11   -1    0    0    0    0 -0.00000000000E+00 -0.00000000000E+00 -0.50000499739E+01  0.50000500000E+01  0.51100000000E-03 0.  1.
         50    1    1    2    0    0 -0.18262566874E-01 -0.10591776418E-01 -0.73685428343E-02  0.50000500000E+01  0.50000000000E+01 0.  1.
         50    1    1    2    0    0  0.18262566874E-01  0.10591776418E-01  0.73685428343E-02  0.50000500000E+01  0.50000000000E+01 0. -1.
</event>
<event>
 4    1  0.4967105E-021  0.5000050E+01  0.7818608E-02  0.2136455E+00
        -11   -1    0    0    0    0  0.00000000000E+00  0.00000000000E+00  0.50000499739E+01  0.50000500000E+01  0.51100000000E-03 0.  1.
         11   -1    0    0    0    0 -0.00000000000E+00 -0.00000000000E+00 -0.50000499739E+01  0.50000500000E+01  0.51100000000E-03 0. -1.
         50    1    1    2    0    0  0.13268959103E-01  0.10354292813E-01  0.14721611483E-01  0.50000500000E+01  0.50000000000E+01 0.  1.
         50    1    1    2    0    0 -0.13268959103E-01 -0.10354292813E-01 -0.14721611483E-01  0.50000500000E+01  0.50000000000E+01 0. -1.
</event>
<event>
 4    1  0.4967105E-021  0.5000050E+01  0.7818608E-02  0.2136455E+00
        -11   -1    0    0    0    0  0.00000000000E+00  0.00000000000E+00  0.50000499739E+01  0.50000500000E+01  0.51100000000E-03 0.  1.
         11   -1    0    0    0    0 -0.00000000000E+00 -0.00000000000E+00 -0.50000499739E+01  0.50000500000E+01  0.51100000000E-03 0. -1.
         50    1    1    2    0    0 -0.18813988997E-01 -0.99616434891E-02 -0.68411970453E-02  0.50000500000E+01  0.50000000000E+01 0. -1.
         50    1    1    2    0    0  0.18813988997E-01  0.99616434891E-02  0.68411970453E-02  0.50000500000E+01  0.50000000000E+01 0.  1.
</event>
<event>
 4    1  0.4967105E-021  0.5000050E+01  0.7818608E-02  0.2136455E+00
        -11   -1    0    0    0    0  0.00000000000E+00  0.00000000000E+00  0.50000499739E+01  0.50000500000E+01  0.51100000000E-03 0.  1.
         11   -1    0    0    0    0 -0.00000000000E+00 -0.00000000000E+00 -0.50000499739E+01  0.50000500000E+01  0.51100000000E-03 0. -1.
         50    1    1    2    0    0  0.47899681902E-02  0.15285354630E-01  0.15601815233E-01  0.50000500000E+01  0.50000000000E+01 0.  1.
         50    1    1    2    0    0 -0.47899681902E-02 -0.15285354630E-01 -0.15601815233E-01  0.50000500000E+01  0.50000000000E+01 0. -1.
</event>
<event>
 4    1  0.4967105E-021  0.5000050E+01  0.7818608E-02  0.2136455E+00
        -11   -1    0    0    0    0  0.00000000000E+00  0.00000000000E+00  0.50000499739E+01  0.50000500000E+01  0.51100000000E-03 0. -1.
         11   -1    0    0    0    0 -0.00000000000E+00 -0.00000000000E+00 -0.50000499739E+01  0.50000500000E+01  0.51100000000E-03 0.  1.
         50    1    1    2    0    0 -0.46120950851E-02  0.21310581706E-01  0.49588492874E-02  0.50000500000E+01  0.50000000000E+01 0.  1.
         50    1    1    2    0    0  0.46120950851E-02 -0.21310581706E-01 -0.49588492874E-02  0.50000500000E+01  0.50000000000E+01 0.  0.
</event>
<event>
 4    1  0.4967105E-021  0.5000050E+01  0.7818608E-02  0.2136455E+00
        -11   -1    0    0    0    0  0.00000000000E+00  0.00000000000E+00  0.50000499739E+01  0.50000500000E+01  0.51100000000E-03 0. -1.
         11   -1    0    0    0    0 -0.00000000000E+00 -0.00000000000E+00 -0.50000499739E+01  0.50000500000E+01  0.51100000000E-03 0.  1.
         50    1    1    2    0    0 -0.56252844181E-02  0.16014255752E-01  0.14556863945E-01  0.50000500000E+01  0.50000000000E+01 0.  0.
         50    1    1    2    0    0  0.56252844181E-02 -0.16014255752E-01 -0.14556863945E-01  0.50000500000E+01  0.50000000000E+01 0.  0.
</event>
<event>
 4    1  0.4967105E-021  0.5000050E+01  0.7818608E-02  0.2136455E+00
        -11   -1    0    0    0    0  0.00000000000E+00  0.00000000000E+00  0.50000499739E+01  0.50000500000E+01  0.51100000000E-03 0. -1.
         11   -1    0    0    0    0 -0.00000000000E+00 -0.00000000000E+00 -0.50000499739E+01  0.50000500000E+01  0.51100000000E-03 0.  1.
         50    1    1    2    0    0  0.21926862682E-01 -0.40696128483E-02  0.16289395865E-02  0.50000500000E+01  0.50000000000E+01 0.  1.
         50    1    1    2    0    0 -0.21926862682E-01  0.40696128483E-02 -0.16289395865E-02  0.50000500000E+01  0.50000000000E+01 0. -1.
</event>
<event>
 4    1  0.4967105E-021  0.5000050E+01  0.7818608E-02  0.2136455E+00
        -11   -1    0    0    0    0  0.00000000000E+00  0.00000000000E+00  0.50000499739E+01  0.50000500000E+01  0.51100000000E-03 0. -1.
         11   -1    0    0    0    0 -0.00000000000E+00 -0.00000000000E+00 -0.50000499739E+01  0.50000500000E+01  0.51100000000E-03 0.  1.
         50    1    1    2    0    0 -0.92411315825E-02 -0.11275953333E-01  0.16954552884E-01  0.50000500000E+01  0.50000000000E+01 0. -1.
         50    1    1    2    0    0  0.92411315825E-02  0.11275953333E-01 -0.16954552884E-01  0.50000500000E+01  0.50000000000E+01 0.  1.
</event>
<event>
 4    1  0.4967105E-021  0.5000050E+01  0.7818608E-02  0.2136455E+00
        -11   -1    0    0    0    0  0.00000000000E+00  0.00000000000E+00  0.50000499739E+01  0.50000500000E+01  0.51100000000E-03 0. -1.
         11   -1    0    0    0    0 -0.00000000000E+00 -0.00000000000E+00 -0.50000499739E+01  0.50000500000E+01  0.51100000000E-03 0.  1.
         50    1    1    2    0    0 -0.14612683795E-01  0.13797517448E-01 -0.98030854624E-02  0.50000500000E+01  0.50000000000E+01 0.  0.
         50    1    1    2    0    0  0.14612683795E-01 -0.13797517448E-01  0.98030854624E-02  0.50000500000E+01  0.50000000000E+01 0.  1.
</event>
<event>
 4    1  0.4967105E-021  0.5000050E+01  0.7818608E-02  0.2136455E+00
        -11   -1    0    0    0    0  0.00000000000E+00  0.00000000000E+00  0.50000499739E+01  0.50000500000E+01  0.51100000000E-03 0. -1.
         11   -1    0    0    0    0 -0.00000000000E+00 -0.00000000000E+00 -0.50000499739E+01  0.50000500000E+01  0.51100000000E-03 0.  1.
         50    1    1    2    0    0 -0.11646832797E-02 -0.62241716127E-02  0.21445412111E-01  0.50000500000E+01  0.50000000000E+01 0.  0.
         50    1    1    2    0    0  0.11646832797E-02  0.62241716127E-02 -0.21445412111E-01  0.50000500000E+01  0.50000000000E+01 0.  1.
</event>
<event>
 4    1  0.4967105E-021  0.5000050E+01  0.7818608E-02  0.2136455E+00
        -11   -1    0    0    0    0  0.00000000000E+00  0.00000000000E+00  0.50000499739E+01  0.50000500000E+01  0.51100000000E-03 0.  1.
         11   -1    0    0    0    0 -0.00000000000E+00 -0.00000000000E+00 -0.50000499739E+01  0.50000500000E+01  0.51100000000E-03 0. -1.
         50    1    1    2    0    0  0.21804576569E-01  0.33914514536E-02 -0.36140002353E-02  0.50000500000E+01  0.50000000000E+01 0.  0.
         50    1    1    2    0    0 -0.21804576569E-01 -0.33914514536E-02  0.36140002353E-02  0.50000500000E+01  0.50000000000E+01 0. -1.
</event>
<event>
 4    1  0.4967105E-021  0.5000050E+01  0.7818608E-02  0.2136455E+00
        -11   -1    0    0    0    0  0.00000000000E+00  0.00000000000E+00  0.50000499739E+01  0.50000500000E+01  0.51100000000E-03 0. -1.
         11   -1    0    0    0    0 -0.00000000000E+00 -0.00000000000E+00 -0.50000499739E+01  0.50000500000E+01  0.51100000000E-03 0.  1.
         50    1    1    2    0    0 -0.19753379734E-01  0.72444599404E-02  0.75712805553E-02  0.50000500000E+01  0.50000000000E+01 0. -1.
         50    1    1    2    0    0  0.19753379734E-01 -0.72444599404E-02 -0.75712805553E-02  0.50000500000E+01  0.50000000000E+01 0.  1.
</event>
<event>
 4    1  0.4967105E-021  0.5000050E+01  0.7818608E-02  0.2136455E+00
        -11   -1    0    0    0    0  0.00000000000E+00  0.00000000000E+00  0.50000499739E+01  0.50000500000E+01  0.51100000000E-03 0. -1.
         11   -1    0    0    0    0 -0.00000000000E+00 -0.00000000000E+00 -0.50000499739E+01  0.50000500000E+01  0.51100000000E-03 0.  1.
         50    1    1    2    0    0  0.20391197608E-01 -0.11983163037E-02  0.90975600116E-02  0.50000500000E+01  0.50000000000E+01 0.  0.
         50    1    1    2    0    0 -0.20391197608E-01  0.11983163037E-02 -0.90975600116E-02  0.50000500000E+01  0.50000000000E+01 0. -1.
</event>
<event>
 4    1  0.1757110E-020  0.5000050E+01  0.7818608E-02  0.2136455E+00
        -11   -1    0    0    0    0  0.00000000000E+00  0.00000000000E+00  0.50000499739E+01  0.50000500000E+01  0.51100000000E-03 0. -1.
         11   -1    0    0    0    0 -0.00000000000E+00 -0.00000000000E+00 -0.50000499739E+01  0.50000500000E+01  0.51100000000E-03 0.  1.
         50    1    1    2    0    0  0.37311769105E-02 -0.26123377623E-02  0.21891927971E-01  0.50000500000E+01  0.50000000000E+01 0. -1.
         50    1    1    2    0    0 -0.37311769105E-02  0.26123377623E-02 -0.21891927971E-01  0.50000500000E+01  0.50000000000E+01 0.  0.
</event>
<event>
 4    1  0.4967105E-021  0.5000050E+01  0.7818608E-02  0.2136455E+00
        -11   -1    0    0    0    0  0.00000000000E+00  0.00000000000E+00  0.50000499739E+01  0.50000500000E+01  0.51100000000E-03 0.  1.
         11   -1    0    0    0    0 -0.00000000000E+00 -0.00000000000E+00 -0.50000499739E+01  0.50000500000E+01  0.51100000000E-03 0. -1.
         50    1    1    2    0    0  0.88989976998E-02  0.20481734900E-01  0.11440609269E-02  0.50000500000E+01  0.50000000000E+01 0.  0.
         50    1    1    2    0    0 -0.88989976998E-02 -0.20481734900E-01 -0.11440609269E-02  0.50000500000E+01  0.50000000000E+01 0. -1.
</event>
<event>
 4    1  0.4967105E-021  0.5000050E+01  0.7818608E-02  0.2136455E+00
        -11   -1    0    0    0    0  0.00000000000E+00  0.00000000000E+00  0.50000499739E+01  0.50000500000E+01  0.51100000000E-03 0.  1.
         11   -1    0    0    0    0 -0.00000000000E+00 -0.00000000000E+00 -0.50000499739E+01  0.50000500000E+01  0.51100000000E-03 0. -1.
         50    1    1    2    0    0 -0.10789504608E-01 -0.18678943642E-01 -0.58894952850E-02  0.50000500000E+01  0.50000000000E+01 0. -1.
         50    1    1    2    0    0  0.10789504608E-01  0.18678943642E-01  0.58894952850E-02  0.50000500000E+01  0.50000000000E+01 0.  1.
</event>
<event>
 4    1  0.4967105E-021  0.5000050E+01  0.7818608E-02  0.2136455E+00
        -11   -1    0    0    0    0  0.00000000000E+00  0.00000000000E+00  0.50000499739E+01  0.50000500000E+01  0.51100000000E-03 0. -1.
         11   -1    0    0    0    0 -0.00000000000E+00 -0.00000000000E+00 -0.50000499739E+01  0.50000500000E+01  0.51100000000E-03 0.  1.
         50    1    1    2    0    0  0.14078618810E-01 -0.17083259403E-01 -0.31555095542E-02  0.50000500000E+01  0.50000000000E+01 0.  1.
         50    1    1    2    0    0 -0.14078618810E-01  0.17083259403E-01  0.31555095542E-02  0.50000500000E+01  0.50000000000E+01 0. -1.
</event>
<event>
 4    1  0.4967105E-021  0.5000050E+01  0.7818608E-02  0.2136455E+00
        -11   -1    0    0    0    0  0.00000000000E+00  0.00000000000E+00  0.50000499739E+01  0.50000500000E+01  0.51100000000E-03 0. -1.
         11   -1    0    0    0    0 -0.00000000000E+00 -0.00000000000E+00 -0.50000499739E+01  0.50000500000E+01  0.51100000000E-03 0.  1.
         50    1    1    2    0    0 -0.12522681170E-01  0.17162555750E-01  0.69736386804E-02  0.50000500000E+01  0.50000000000E+01 0.  1.
         50    1    1    2    0    0  0.12522681170E-01 -0.17162555750E-01 -0.69736386804E-02  0.50000500000E+01  0.50000000000E+01 0. -1.
</event>
<event>
 4    1  0.4967105E-021  0.5000050E+01  0.7818608E-02  0.2136455E+00
        -11   -1    0    0    0    0  0.00000000000E+00  0.00000000000E+00  0.50000499739E+01  0.50000500000E+01  0.51100000000E-03 0.  1.
         11   -1    0    0    0    0 -0.00000000000E+00 -0.00000000000E+00 -0.50000499739E+01  0.50000500000E+01  0.51100000000E-03 0. -1.
         50    1    1    2    0    0  0.88337923218E-02 -0.22302109179E-02 -0.20420400889E-01  0.50000500000E+01  0.50000000000E+01 0. -1.
         50    1    1    2    0    0 -0.88337923218E-02  0.22302109179E-02  0.20420400889E-01  0.50000500000E+01  0.50000000000E+01 0.  0.
</event>
<event>
 4    1  0.4967105E-021  0.5000050E+01  0.7818608E-02  0.2136455E+00
        -11   -1    0    0    0    0  0.00000000000E+00  0.00000000000E+00  0.50000499739E+01  0.50000500000E+01  0.51100000000E-03 0.  1.
         11   -1    0    0    0    0 -0.00000000000E+00 -0.00000000000E+00 -0.50000499739E+01  0.50000500000E+01  0.51100000000E-03 0. -1.
         50    1    1    2    0    0  0.44834901324E-02 -0.81625783073E-02  0.20329120286E-01  0.50000500000E+01  0.50000000000E+01 0.  0.
         50    1    1    2    0    0 -0.44834901324E-02  0.81625783073E-02 -0.20329120286E-01  0.50000500000E+01  0.50000000000E+01 0.  0.
</event>
<event>
 4    1  0.4967105E-021  0.5000050E+01  0.7818608E-02  0.2136455E+00
        -11   -1    0    0    0    0  0.00000000000E+00  0.00000000000E+00  0.50000499739E+01  0.50000500000E+01  0.51100000000E-03 0.  1.
         11   -1    0    0    0    0 -0.00000000000E+00 -0.00000000000E+00 -0.50000499739E+01  0.50000500000E+01  0.51100000000E-03 0. -1.
         50    1    1    2    0    0  0.78938998928E-02 -0.17599760922E-01 -0.11310935416E-01  0.50000500000E+01  0.50000000000E+01 0.  1.
         50    1    1    2    0    0 -0.78938998928E-02  0.17599760922E-01  0.11310935416E-01  0.50000500000E+01  0.50000000000E+01 0.  1.
</event>
<event>
 4    1  0.4967105E-021  0.5000050E+01  0.7818608E-02  0.2136455E+00
        -11   -1    0    0    0    0  0.00000000000E+00  0.00000000000E+00  0.50000499739E+01  0.50000500000E+01  0.51100000000E-03 0. -1.
         11   -1    0    0    0    0 -0.00000000000E+00 -0.00000000000E+00 -0.50000499739E+01  0.50000500000E+01  0.51100000000E-03 0.  1.
         50    1    1    2    0    0  0.10509101245E-01 -0.97790910380E-02 -0.17144406361E-01  0.50000500000E+01  0.50000000000E+01 0.  0.
         50    1    1    2    0    0 -0.10509101245E-01  0.97790910380E-02  0.17144406361E-01  0.50000500000E+01  0.50000000000E+01 0.  0.
</event>
<event>
 4    1  0.4967105E-021  0.5000050E+01  0.7818608E-02  0.2136455E+00
        -11   -1    0    0    0    0  0.00000000000E+00  0.00000000000E+00  0.50000499739E+01  0.50000500000E+01  0.51100000000E-03 0.  1.
         11   -1    0    0    0    0 -0.00000000000E+00 -0.00000000000E+00 -0.50000499739E+01  0.50000500000E+01  0.51100000000E-03 0. -1.
         50    1    1    2    0    0 -0.14004997252E-01  0.13430653806E-01  0.11112159570E-01  0.50000500000E+01  0.50000000000E+01 0.  1.
         50    1    1    2    0    0  0.14004997252E-01 -0.13430653806E-01 -0.11112159570E-01  0.50000500000E+01  0.50000000000E+01 0. -1.
</event>
<event>
 4    1  0.4967105E-021  0.5000050E+01  0.7818608E-02  0.2136455E+00
        -11   -1    0    0    0    0  0.00000000000E+00  0.00000000000E+00  0.50000499739E+01  0.50000500000E+01  0.51100000000E-03 0.  1.
         11   -1    0    0    0    0 -0.00000000000E+00 -0.00000000000E+00 -0.50000499739E+01  0.50000500000E+01  0.51100000000E-03 0. -1.
         50    1    1    2    0    0  0.21771725094E-01 -0.38312126158E-02 -0.33639703197E-02  0.50000500000E+01  0.50000000000E+01 0. -1.
         50    1    1    2    0    0 -0.21771725094E-01  0.38312126158E-02  0.33639703197E-02  0.50000500000E+01  0.50000000000E+01 0.  1.
</event>
<event>
 4    1  0.4967105E-021  0.5000050E+01  0.7818608E-02  0.2136455E+00
        -11   -1    0    0    0    0  0.00000000000E+00  0.00000000000E+00  0.50000499739E+01  0.50000500000E+01  0.51100000000E-03 0.  1.
         11   -1    0    0    0    0 -0.00000000000E+00 -0.00000000000E+00 -0.50000499739E+01  0.50000500000E+01  0.51100000000E-03 0. -1.
         50    1    1    2    0    0 -0.17667695714E-01 -0.11463460606E-01  0.75129287956E-02  0.50000500000E+01  0.50000000000E+01 0.  1.
         50    1    1    2    0    0  0.17667695714E-01  0.11463460606E-01 -0.75129287956E-02  0.50000500000E+01  0.50000000000E+01 0. -1.
</event>
<event>
 4    1  0.4967105E-021  0.5000050E+01  0.7818608E-02  0.2136455E+00
        -11   -1    0    0    0    0  0.00000000000E+00  0.00000000000E+00  0.50000499739E+01  0.50000500000E+01  0.51100000000E-03 0.  1.
         11   -1    0    0    0    0 -0.00000000000E+00 -0.00000000000E+00 -0.50000499739E+01  0.50000500000E+01  0.51100000000E-03 0. -1.
         50    1    1    2    0    0 -0.34918421249E-02 -0.13847526981E-01 -0.17206264414E-01  0.50000500000E+01  0.50000000000E+01 0.  1.
         50    1    1    2    0    0  0.34918421249E-02  0.13847526981E-01  0.17206264414E-01  0.50000500000E+01  0.50000000000E+01 0.  0.
</event>
<event>
 4    1  0.4967105E-021  0.5000050E+01  0.7818608E-02  0.2136455E+00
        -11   -1    0    0    0    0  0.00000000000E+00  0.00000000000E+00  0.50000499739E+01  0.50000500000E+01  0.51100000000E-03 0.  1.
         11   -1    0    0    0    0 -0.00000000000E+00 -0.00000000000E+00 -0.50000499739E+01  0.50000500000E+01  0.51100000000E-03 0. -1.
         50    1    1    2    0    0  0.15357743229E-01 -0.11329761624E-01 -0.11652412817E-01  0.50000500000E+01  0.50000000000E+01 0.  0.
         50    1    1    2    0    0 -0.15357743229E-01  0.11329761624E-01  0.11652412817E-01  0.50000500000E+01  0.50000000000E+01 0.  0.
</event>
<event>
 4    1  0.4967105E-021  0.5000050E+01  0.7818608E-02  0.2136455E+00
        -11   -1    0    0    0    0  0.00000000000E+00  0.00000000000E+00  0.50000499739E+01  0.50000500000E+01  0.51100000000E-03 0.  1.
         11   -1    0    0    0    0 -0.00000000000E+00 -0.00000000000E+00 -0.50000499739E+01  0.50000500000E+01  0.51100000000E-03 0. -1.
         50    1    1    2    0    0 -0.15971915371E-01 -0.15491361497E-01  0.22176876112E-02  0.50000500000E+01  0.50000000000E+01 0.  1.
         50    1    1    2    0    0  0.15971915371E-01  0.15491361497E-01 -0.22176876112E-02  0.50000500000E+01  0.50000000000E+01 0. -1.
</event>
<event>
 4    1  0.4967105E-021  0.5000050E+01  0.7818608E-02  0.2136455E+00
        -11   -1    0    0    0    0  0.00000000000E+00  0.00000000000E+00  0.50000499739E+01  0.50000500000E+01  0.51100000000E-03 0. -1.
         11   -1    0    0    0    0 -0.00000000000E+00 -0.00000000000E+00 -0.50000499739E+01  0.50000500000E+01  0.51100000000E-03 0.  1.
         50    1    1    2    0    0  0.68787320940E-02  0.11483880619E-01  0.17911058894E-01  0.50000500000E+01  0.50000000000E+01 0.  0.
         50    1    1    2    0    0 -0.68787320940E-02 -0.11483880619E-01 -0.17911058894E-01  0.50000500000E+01  0.50000000000E+01 0.  1.
</event>
<event>
 4    1  0.4967105E-021  0.5000050E+01  0.7818608E-02  0.2136455E+00
        -11   -1    0    0    0    0  0.00000000000E+00  0.00000000000E+00  0.50000499739E+01  0.50000500000E+01  0.51100000000E-03 0.  1.
         11   -1    0    0    0    0 -0.00000000000E+00 -0.00000000000E+00 -0.50000499739E+01  0.50000500000E+01  0.51100000000E-03 0. -1.
         50    1    1    2    0    0 -0.26161501626E-02  0.21193275891E-01  0.66334994801E-02  0.50000500000E+01  0.50000000000E+01 0.  1.
         50    1    1    2    0    0  0.26161501626E-02 -0.21193275891E-01 -0.66334994801E-02  0.50000500000E+01  0.50000000000E+01 0. -1.
</event>
<event>
 4    1  0.4967105E-021  0.5000050E+01  0.7818608E-02  0.2136455E+00
        -11   -1    0    0    0    0  0.00000000000E+00  0.00000000000E+00  0.50000499739E+01  0.50000500000E+01  0.51100000000E-03 0. -1.
         11   -1    0    0    0    0 -0.00000000000E+00 -0.00000000000E+00 -0.50000499739E+01  0.50000500000E+01  0.51100000000E-03 0.  1.
         50    1    1    2    0    0 -0.73200406083E-02  0.48949869356E-02  0.20553797907E-01  0.50000500000E+01  0.50000000000E+01 0.  0.
         50    1    1    2    0    0  0.73200406083E-02 -0.48949869356E-02 -0.20553797907E-01  0.50000500000E+01  0.50000000000E+01 0.  1.
</event>
<event>
 4    1  0.4967105E-021  0.5000050E+01  0.7818608E-02  0.2136455E+00
        -11   -1    0    0    0    0  0.00000000000E+00  0.00000000000E+00  0.50000499739E+01  0.50000500000E+01  0.51100000000E-03 0.  1.
         11   -1    0    0    0    0 -0.00000000000E+00 -0.00000000000E+00 -0.50000499739E+01  0.50000500000E+01  0.51100000000E-03 0. -1.
         50    1    1    2    0    0  0.11561003483E-01  0.71675271451E-02  0.17747457651E-01  0.50000500000E+01  0.50000000000E+01 0.  0.
         50    1    1    2    0    0 -0.11561003483E-01 -0.71675271451E-02 -0.17747457651E-01  0.50000500000E+01  0.50000000000E+01 0. -1.
</event>
<event>
 4    1  0.4967105E-021  0.5000050E+01  0.7818608E-02  0.2136455E+00
        -11   -1    0    0    0    0  0.00000000000E+00  0.00000000000E+00  0.50000499739E+01  0.50000500000E+01  0.51100000000E-03 0.  1.
         11   -1    0    0    0    0 -0.00000000000E+00 -0.00000000000E+00 -0.50000499739E+01  0.50000500000E+01  0.51100000000E-03 0. -1.
         50    1    1    2    0    0  0.13490180313E-01  0.16251579352E-01 -0.73419141690E-02  0.50000500000E+01  0.50000000000E+01 0. -1.
         50    1    1    2    0    0 -0.13490180313E-01 -0.16251579352E-01  0.73419141690E-02  0.50000500000E+01  0.50000000000E+01 0.  1.
</event>
<event>
 4    1  0.4967105E-021  0.5000050E+01  0.7818608E-02  0.2136455E+00
        -11   -1    0    0    0    0  0.00000000000E+00  0.00000000000E+00  0.50000499739E+01  0.50000500000E+01  0.51100000000E-03 0.  1.
         11   -1    0    0    0    0 -0.00000000000E+00 -0.00000000000E+00 -0.50000499739E+01  0.50000500000E+01  0.51100000000E-03 0. -1.
         50    1    1    2    0    0  0.19523242730E-01  0.30503662287E-02 -0.10466172135E-01  0.50000500000E+01  0.50000000000E+01 0. -1.
         50    1    1    2    0    0 -0.19523242730E-01 -0.30503662287E-02  0.10466172135E-01  0.50000500000E+01  0.50000000000E+01 0.  1.
</event>
<event>
 4    1  0.4967105E-021  0.5000050E+01  0.7818608E-02  0.2136455E+00
        -11   -1    0    0    0    0  0.00000000000E+00  0.00000000000E+00  0.50000499739E+01  0.50000500000E+01  0.51100000000E-03 0. -1.
         11   -1    0    0    0    0 -0.00000000000E+00 -0.00000000000E+00 -0.50000499739E+01  0.50000500000E+01  0.51100000000E-03 0.  1.
         50    1    1    2    0    0 -0.14796737973E-01  0.45362338079E-02 -0.16139443243E-01  0.50000500000E+01  0.50000000000E+01 0.  0.
         50    1    1    2    0    0  0.14796737973E-01 -0.45362338079E-02  0.16139443243E-01  0.50000500000E+01  0.50000000000E+01 0.  0.
</event>
<event>
 4    1  0.4967105E-021  0.5000050E+01  0.7818608E-02  0.2136455E+00
        -11   -1    0    0    0    0  0.00000000000E+00  0.00000000000E+00  0.50000499739E+01  0.50000500000E+01  0.51100000000E-03 0.  1.
         11   -1    0    0    0    0 -0.00000000000E+00 -0.00000000000E+00 -0.50000499739E+01  0.50000500000E+01  0.51100000000E-03 0. -1.
         50    1    1    2    0    0  0.17688770285E-01  0.32734692005E-03  0.13674894873E-01  0.50000500000E+01  0.50000000000E+01 0.  0.
         50    1    1    2    0    0 -0.17688770285E-01 -0.32734692005E-03 -0.13674894873E-01  0.50000500000E+01  0.50000000000E+01 0.  1.
</event>
<event>
 4    1  0.4967105E-021  0.5000050E+01  0.7818608E-02  0.2136455E+00
        -11   -1    0    0    0    0  0.00000000000E+00  0.00000000000E+00  0.50000499739E+01  0.50000500000E+01  0.51100000000E-03 0. -1.
         11   -1    0    0    0    0 -0.00000000000E+00 -0.00000000000E+00 -0.50000499739E+01  0.50000500000E+01  0.51100000000E-03 0.  1.
         50    1    1    2    0    0  0.21919297470E-01  0.42002817206E-02 -0.13800477810E-02  0.50000500000E+01  0.50000000000E+01 0.  1.
         50    1    1    2    0    0 -0.21919297470E-01 -0.42002817206E-02  0.13800477810E-02  0.50000500000E+01  0.50000000000E+01 0. -1.
</event>
<event>
 4    1  0.4967105E-021  0.5000050E+01  0.7818608E-02  0.2136455E+00
        -11   -1    0    0    0    0  0.00000000000E+00  0.00000000000E+00  0.50000499739E+01  0.50000500000E+01  0.51100000000E-03 0.  1.
         11   -1    0    0    0    0 -0.00000000000E+00 -0.00000000000E+00 -0.50000499739E+01  0.50000500000E+01  0.51100000000E-03 0. -1.
         50    1    1    2    0    0  0.18964905427E-01  0.11155720332E-01  0.39855697249E-02  0.50000500000E+01  0.50000000000E+01 0.  0.
         50    1    1    2    0    0 -0.18964905427E-01 -0.11155720332E-01 -0.39855697249E-02  0.50000500000E+01  0.50000000000E+01 0.  1.
</event>
<event>
 4    1  0.4967105E-021  0.5000050E+01  0.7818608E-02  0.2136455E+00
        -11   -1    0    0    0    0  0.00000000000E+00  0.00000000000E+00  0.50000499739E+01  0.50000500000E+01  0.51100000000E-03 0. -1.
         11   -1    0    0    0    0 -0.00000000000E+00 -0.00000000000E+00 -0.50000499739E+01  0.50000500000E+01  0.51100000000E-03 0.  1.
         50    1    1    2    0    0 -0.76629840630E-02  0.11348454982E-01 -0.17677492604E-01  0.50000500000E+01  0.50000000000E+01 0.  0.
         50    1    1    2    0    0  0.76629840630E-02 -0.11348454982E-01  0.17677492604E-01  0.50000500000E+01  0.50000000000E+01 0.  0.
</event>
<event>
 4    1  0.4967105E-021  0.5000050E+01  0.7818608E-02  0.2136455E+00
        -11   -1    0    0    0    0  0.00000000000E+00  0.00000000000E+00  0.50000499739E+01  0.50000500000E+01  0.51100000000E-03 0. -1.
         11   -1    0    0    0    0 -0.00000000000E+00 -0.00000000000E+00 -0.50000499739E+01  0.50000500000E+01  0.51100000000E-03 0.  1.
         50    1    1    2    0    0  0.14412857490E-01  0.15132606255E-01  0.79546380756E-02  0.50000500000E+01  0.50000000000E+01 0.  0.
         50    1    1    2    0    0 -0.14412857490E-01 -0.15132606255E-01 -0.79546380756E-02  0.50000500000E+01  0.50000000000E+01 0.  0.
</event>
<event>
 4    1  0.4967105E-021  0.5000050E+01  0.7818608E-02  0.2136455E+00
        -11   -1    0    0    0    0  0.00000000000E+00  0.00000000000E+00  0.50000499739E+01  0.50000500000E+01  0.51100000000E-03 0. -1.
         11   -1    0    0    0    0 -0.00000000000E+00 -0.00000000000E+00 -0.50000499739E+01  0.50000500000E+01  0.51100000000E-03 0.  1.
         50    1    1    2    0    0 -0.73812298855E-02  0.16808414994E-01  0.12767032967E-01  0.50000500000E+01  0.50000000000E+01 0. -1.
         50    1    1    2    0    0  0.73812298855E-02 -0.16808414994E-01 -0.12767032967E-01  0.50000500000E+01  0.50000000000E+01 0.  1.
</event>
<event>
 4    1  0.4967105E-021  0.5000050E+01  0.7818608E-02  0.2136455E+00
        -11   -1    0    0    0    0  0.00000000000E+00  0.00000000000E+00  0.50000499739E+01  0.50000500000E+01  0.51100000000E-03 0. -1.
         11   -1    0    0    0    0 -0.00000000000E+00 -0.00000000000E+00 -0.50000499739E+01  0.50000500000E+01  0.51100000000E-03 0.  1.
         50    1    1    2    0    0  0.15867450186E-01 -0.15742880845E-01 -0.62307887707E-03  0.50000500000E+01  0.50000000000E+01 0.  1.
         50    1    1    2    0    0 -0.15867450186E-01  0.15742880845E-01  0.62307887707E-03  0.50000500000E+01  0.50000000000E+01 0.  0.
</event>
<event>
 4    1  0.4967105E-021  0.5000050E+01  0.7818608E-02  0.2136455E+00
        -11   -1    0    0    0    0  0.00000000000E+00  0.00000000000E+00  0.50000499739E+01  0.50000500000E+01  0.51100000000E-03 0. -1.
         11   -1    0    0    0    0 -0.00000000000E+00 -0.00000000000E+00 -0.50000499739E+01  0.50000500000E+01  0.51100000000E-03 0.  1.
         50    1    1    2    0    0 -0.15602168226E-01  0.10213824763E-02  0.15985356565E-01  0.50000500000E+01  0.50000000000E+01 0.  0.
         50    1    1    2    0    0  0.15602168226E-01 -0.10213824763E-02 -0.15985356565E-01  0.50000500000E+01  0.50000000000E+01 0.  0.
</event>
<event>
 4    1  0.4967105E-021  0.5000050E+01  0.7818608E-02  0.2136455E+00
        -11   -1    0    0    0    0  0.00000000000E+00  0.00000000000E+00  0.50000499739E+01  0.50000500000E+01  0.51100000000E-03 0. -1.
         11   -1    0    0    0    0 -0.00000000000E+00 -0.00000000000E+00 -0.50000499739E+01  0.50000500000E+01  0.51100000000E-03 0.  1.
         50    1    1    2    0    0  0.21082391105E-01  0.74285257762E-02  0.59354030847E-03  0.50000500000E+01  0.50000000000E+01 0.  1.
         50    1    1    2    0    0 -0.21082391105E-01 -0.74285257762E-02 -0.59354030847E-03  0.50000500000E+01  0.50000000000E+01 0. -1.
</event>
<event>
 4    1  0.4967105E-021  0.5000050E+01  0.7818608E-02  0.2136455E+00
        -11   -1    0    0    0    0  0.00000000000E+00  0.00000000000E+00  0.50000499739E+01  0.50000500000E+01  0.51100000000E-03 0.  1.
         11   -1    0    0    0    0 -0.00000000000E+00 -0.00000000000E+00 -0.50000499739E+01  0.50000500000E+01  0.51100000000E-03 0. -1.
         50    1    1    2    0    0  0.20454698179E-01 -0.82297582077E-02  0.37254398731E-02  0.50000500000E+01  0.50000000000E+01 0.  1.
         50    1    1    2    0    0 -0.20454698179E-01  0.82297582077E-02 -0.37254398731E-02  0.50000500000E+01  0.50000000000E+01 0. -1.
</event>
<event>
 4    1  0.4967105E-021  0.5000050E+01  0.7818608E-02  0.2136455E+00
        -11   -1    0    0    0    0  0.00000000000E+00  0.00000000000E+00  0.50000499739E+01  0.50000500000E+01  0.51100000000E-03 0.  1.
         11   -1    0    0    0    0 -0.00000000000E+00 -0.00000000000E+00 -0.50000499739E+01  0.50000500000E+01  0.51100000000E-03 0. -1.
         50    1    1    2    0    0 -0.11349604199E-01  0.68252900471E-02  0.18016781075E-01  0.50000500000E+01  0.50000000000E+01 0.  1.
         50    1    1    2    0    0  0.11349604199E-01 -0.68252900471E-02 -0.18016781075E-01  0.50000500000E+01  0.50000000000E+01 0.  0.
</event>
<event>
 4    1  0.4967105E-021  0.5000050E+01  0.7818608E-02  0.2136455E+00
        -11   -1    0    0    0    0  0.00000000000E+00  0.00000000000E+00  0.50000499739E+01  0.50000500000E+01  0.51100000000E-03 0. -1.
         11   -1    0    0    0    0 -0.00000000000E+00 -0.00000000000E+00 -0.50000499739E+01  0.50000500000E+01  0.51100000000E-03 0.  1.
         50    1    1    2    0    0  0.14555762142E-01 -0.15753160408E-01  0.63222010102E-02  0.50000500000E+01  0.50000000000E+01 0.  0.
         50    1    1    2    0    0 -0.14555762142E-01  0.15753160408E-01 -0.63222010102E-02  0.50000500000E+01  0.50000000000E+01 0. -1.
</event>
<event>
 4    1  0.4967105E-021  0.5000050E+01  0.7818608E-02  0.2136455E+00
        -11   -1    0    0    0    0  0.00000000000E+00  0.00000000000E+00  0.50000499739E+01  0.50000500000E+01  0.51100000000E-03 0.  1.
         11   -1    0    0    0    0 -0.00000000000E+00 -0.00000000000E+00 -0.50000499739E+01  0.50000500000E+01  0.51100000000E-03 0. -1.
         50    1    1    2    0    0  0.47915243999E-02  0.14192212696E-01  0.16601954485E-01  0.50000500000E+01  0.50000000000E+01 0.  0.
         50    1    1    2    0    0 -0.47915243999E-02 -0.14192212696E-01 -0.16601954485E-01  0.50000500000E+01  0.50000000000E+01 0.  0.
</event>
<event>
 4    1  0.4967105E-021  0.5000050E+01  0.7818608E-02  0.2136455E+00
        -11   -1    0    0    0    0  0.00000000000E+00  0.00000000000E+00  0.50000499739E+01  0.50000500000E+01  0.51100000000E-03 0.  1.
         11   -1    0    0    0    0 -0.00000000000E+00 -0.00000000000E+00 -0.50000499739E+01  0.50000500000E+01  0.51100000000E-03 0. -1.
         50    1    1    2    0    0  0.81864672522E-02  0.20739061925E-01 -0.16957489170E-02  0.50000500000E+01  0.50000000000E+01 0.  0.
         50    1    1    2    0    0 -0.81864672522E-02 -0.20739061925E-01  0.16957489170E-02  0.50000500000E+01  0.50000000000E+01 0. -1.
</event>
<event>
 4    1  0.4967105E-021  0.5000050E+01  0.7818608E-02  0.2136455E+00
        -11   -1    0    0    0    0  0.00000000000E+00  0.00000000000E+00  0.50000499739E+01  0.50000500000E+01  0.51100000000E-03 0. -1.
         11   -1    0    0    0    0 -0.00000000000E+00 -0.00000000000E+00 -0.50000499739E+01  0.50000500000E+01  0.51100000000E-03 0.  1.
         50    1    1    2    0    0 -0.19324670371E-02 -0.39106906267E-02  0.21931132437E-01  0.50000500000E+01  0.50000000000E+01 0.  0.
         50    1    1    2    0    0  0.19324670371E-02  0.39106906267E-02 -0.21931132437E-01  0.50000500000E+01  0.50000000000E+01 0.  1.
</event>
<event>
 4    1  0.4967105E-021  0.5000050E+01  0.7818608E-02  0.2136455E+00
        -11   -1    0    0    0    0  0.00000000000E+00  0.00000000000E+00  0.50000499739E+01  0.50000500000E+01  0.51100000000E-03 0. -1.
         11   -1    0    0    0    0 -0.00000000000E+00 -0.00000000000E+00 -0.50000499739E+01  0.50000500000E+01  0.51100000000E-03 0.  1.
         50    1    1    2    0    0  0.20847748448E-01  0.20463702232E-02  0.78221642506E-02  0.50000500000E+01  0.50000000000E+01 0.  0.
         50    1    1    2    0    0 -0.20847748448E-01 -0.20463702232E-02 -0.78221642506E-02  0.50000500000E+01  0.50000000000E+01 0.  0.
</event>
<event>
 4    1  0.4967105E-021  0.5000050E+01  0.7818608E-02  0.2136455E+00
        -11   -1    0    0    0    0  0.00000000000E+00  0.00000000000E+00  0.50000499739E+01  0.50000500000E+01  0.51100000000E-03 0.  1.
         11   -1    0    0    0    0 -0.00000000000E+00 -0.00000000000E+00 -0.50000499739E+01  0.50000500000E+01  0.51100000000E-03 0. -1.
         50    1    1    2    0    0  0.16132579889E-01  0.13531441985E-01 -0.75261174539E-02  0.50000500000E+01  0.50000000000E+01 0. -1.
         50    1    1    2    0    0 -0.16132579889E-01 -0.13531441985E-01  0.75261174539E-02  0.50000500000E+01  0.50000000000E+01 0.  1.
</event>
<event>
 4    1  0.4967105E-021  0.5000050E+01  0.7818608E-02  0.2136455E+00
        -11   -1    0    0    0    0  0.00000000000E+00  0.00000000000E+00  0.50000499739E+01  0.50000500000E+01  0.51100000000E-03 0.  1.
         11   -1    0    0    0    0 -0.00000000000E+00 -0.00000000000E+00 -0.50000499739E+01  0.50000500000E+01  0.51100000000E-03 0. -1.
         50    1    1    2    0    0 -0.12952178678E-01 -0.16273246583E-01 -0.82112735405E-02  0.50000500000E+01  0.50000000000E+01 0.  0.
         50    1    1    2    0    0  0.12952178678E-01  0.16273246583E-01  0.82112735405E-02  0.50000500000E+01  0.50000000000E+01 0. -1.
</event>
<event>
 4    1  0.4967105E-021  0.5000050E+01  0.7818608E-02  0.2136455E+00
        -11   -1    0    0    0    0  0.00000000000E+00  0.00000000000E+00  0.50000499739E+01  0.50000500000E+01  0.51100000000E-03 0.  1.
         11   -1    0    0    0    0 -0.00000000000E+00 -0.00000000000E+00 -0.50000499739E+01  0.50000500000E+01  0.51100000000E-03 0. -1.
         50    1    1    2    0    0  0.79187371517E-02 -0.20501783255E-01 -0.41198283099E-02  0.50000500000E+01  0.50000000000E+01 0. -1.
         50    1    1    2    0    0 -0.79187371517E-02  0.20501783255E-01  0.41198283099E-02  0.50000500000E+01  0.50000000000E+01 0.  1.
</event>
<event>
 4    1  0.4967105E-021  0.5000050E+01  0.7818608E-02  0.2136455E+00
        -11   -1    0    0    0    0  0.00000000000E+00  0.00000000000E+00  0.50000499739E+01  0.50000500000E+01  0.51100000000E-03 0.  1.
         11   -1    0    0    0    0 -0.00000000000E+00 -0.00000000000E+00 -0.50000499739E+01  0.50000500000E+01  0.51100000000E-03 0. -1.
         50    1    1    2    0    0  0.18654042004E-01  0.36527875746E-02  0.11776517305E-01  0.50000500000E+01  0.50000000000E+01 0.  0.
         50    1    1    2    0    0 -0.18654042004E-01 -0.36527875746E-02 -0.11776517305E-01  0.50000500000E+01  0.50000000000E+01 0.  1.
</event>
<event>
 4    1  0.4967105E-021  0.5000050E+01  0.7818608E-02  0.2136455E+00
        -11   -1    0    0    0    0  0.00000000000E+00  0.00000000000E+00  0.50000499739E+01  0.50000500000E+01  0.51100000000E-03 0.  1.
         11   -1    0    0    0    0 -0.00000000000E+00 -0.00000000000E+00 -0.50000499739E+01  0.50000500000E+01  0.51100000000E-03 0. -1.
         50    1    1    2    0    0  0.92250695820E-02 -0.16407691630E-01 -0.12070138631E-01  0.50000500000E+01  0.50000000000E+01 0. -1.
         50    1    1    2    0    0 -0.92250695820E-02  0.16407691630E-01  0.12070138631E-01  0.50000500000E+01  0.50000000000E+01 0.  1.
</event>
<event>
 4    1  0.4967105E-021  0.5000050E+01  0.7818608E-02  0.2136455E+00
        -11   -1    0    0    0    0  0.00000000000E+00  0.00000000000E+00  0.50000499739E+01  0.50000500000E+01  0.51100000000E-03 0.  1.
         11   -1    0    0    0    0 -0.00000000000E+00 -0.00000000000E+00 -0.50000499739E+01  0.50000500000E+01  0.51100000000E-03 0. -1.
         50    1    1    2    0    0  0.10234160367E-01  0.10206888007E-01 -0.17061181049E-01  0.50000500000E+01  0.50000000000E+01 0.  0.
         50    1    1    2    0    0 -0.10234160367E-01 -0.10206888007E-01  0.17061181049E-01  0.50000500000E+01  0.50000000000E+01 0.  0.
</event>
<event>
 4    1  0.4967105E-021  0.5000050E+01  0.7818608E-02  0.2136455E+00
        -11   -1    0    0    0    0  0.00000000000E+00  0.00000000000E+00  0.50000499739E+01  0.50000500000E+01  0.51100000000E-03 0. -1.
         11   -1    0    0    0    0 -0.00000000000E+00 -0.00000000000E+00 -0.50000499739E+01  0.50000500000E+01  0.51100000000E-03 0.  1.
         50    1    1    2    0    0  0.37335116820E-02 -0.16930271591E-01  0.14121943718E-01  0.50000500000E+01  0.50000000000E+01 0.  0.
         50    1    1    2    0    0 -0.37335116820E-02  0.16930271591E-01 -0.14121943718E-01  0.50000500000E+01  0.50000000000E+01 0. -1.
</event>
<event>
 4    1  0.4967105E-021  0.5000050E+01  0.7818608E-02  0.2136455E+00
        -11   -1    0    0    0    0  0.00000000000E+00  0.00000000000E+00  0.50000499739E+01  0.50000500000E+01  0.51100000000E-03 0.  1.
         11   -1    0    0    0    0 -0.00000000000E+00 -0.00000000000E+00 -0.50000499739E+01  0.50000500000E+01  0.51100000000E-03 0. -1.
         50    1    1    2    0    0  0.71492355465E-02 -0.72569192454E-02 -0.19905477994E-01  0.50000500000E+01  0.50000000000E+01 0. -1.
         50    1    1    2    0    0 -0.71492355465E-02  0.72569192454E-02  0.19905477994E-01  0.50000500000E+01  0.50000000000E+01 0.  0.
</event>
<event>
 4    1  0.4967105E-021  0.5000050E+01  0.7818608E-02  0.2136455E+00
        -11   -1    0    0    0    0  0.00000000000E+00  0.00000000000E+00  0.50000499739E+01  0.50000500000E+01  0.51100000000E-03 0. -1.
         11   -1    0    0    0    0 -0.00000000000E+00 -0.00000000000E+00 -0.50000499739E+01  0.50000500000E+01  0.51100000000E-03 0.  1.
         50    1    1    2    0    0  0.18544053181E-01 -0.12427535817E-01  0.12949691621E-02  0.50000500000E+01  0.50000000000E+01 0.  1.
         50    1    1    2    0    0 -0.18544053181E-01  0.12427535817E-01 -0.12949691621E-02  0.50000500000E+01  0.50000000000E+01 0. -1.
</event>
<event>
 4    1  0.4967105E-021  0.5000050E+01  0.7818608E-02  0.2136455E+00
        -11   -1    0    0    0    0  0.00000000000E+00  0.00000000000E+00  0.50000499739E+01  0.50000500000E+01  0.51100000000E-03 0.  1.
         11   -1    0    0    0    0 -0.00000000000E+00 -0.00000000000E+00 -0.50000499739E+01  0.50000500000E+01  0.51100000000E-03 0. -1.
         50    1    1    2    0    0 -0.19832097711E-01  0.77332611729E-02 -0.68474135269E-02  0.50000500000E+01  0.50000000000E+01 0. -1.
         50    1    1    2    0    0  0.19832097711E-01 -0.77332611729E-02  0.68474135269E-02  0.50000500000E+01  0.50000000000E+01 0.  1.
</event>
<event>
 4    1  0.4967105E-021  0.5000050E+01  0.7818608E-02  0.2136455E+00
        -11   -1    0    0    0    0  0.00000000000E+00  0.00000000000E+00  0.50000499739E+01  0.50000500000E+01  0.51100000000E-03 0.  1.
         11   -1    0    0    0    0 -0.00000000000E+00 -0.00000000000E+00 -0.50000499739E+01  0.50000500000E+01  0.51100000000E-03 0. -1.
         50    1    1    2    0    0  0.98439057918E-03  0.21697018551E-01 -0.53172230687E-02  0.50000500000E+01  0.50000000000E+01 0.  0.
         50    1    1    2    0    0 -0.98439057918E-03 -0.21697018551E-01  0.53172230687E-02  0.50000500000E+01  0.50000000000E+01 0. -1.
</event>
<event>
 4    1  0.4967105E-021  0.5000050E+01  0.7818608E-02  0.2136455E+00
        -11   -1    0    0    0    0  0.00000000000E+00  0.00000000000E+00  0.50000499739E+01  0.50000500000E+01  0.51100000000E-03 0. -1.
         11   -1    0    0    0    0 -0.00000000000E+00 -0.00000000000E+00 -0.50000499739E+01  0.50000500000E+01  0.51100000000E-03 0.  1.
         50    1    1    2    0    0  0.13433958845E-01  0.12439952674E-01 -0.12836620553E-01  0.50000500000E+01  0.50000000000E+01 0.  1.
         50    1    1    2    0    0 -0.13433958845E-01 -0.12439952674E-01  0.12836620553E-01  0.50000500000E+01  0.50000000000E+01 0. -1.
</event>
<event>
 4    1  0.4967105E-021  0.5000050E+01  0.7818608E-02  0.2136455E+00
        -11   -1    0    0    0    0  0.00000000000E+00  0.00000000000E+00  0.50000499739E+01  0.50000500000E+01  0.51100000000E-03 0.  1.
         11   -1    0    0    0    0 -0.00000000000E+00 -0.00000000000E+00 -0.50000499739E+01  0.50000500000E+01  0.51100000000E-03 0. -1.
         50    1    1    2    0    0  0.10809326502E-01 -0.92533613934E-02 -0.17249239505E-01  0.50000500000E+01  0.50000000000E+01 0. -1.
         50    1    1    2    0    0 -0.10809326502E-01  0.92533613934E-02  0.17249239505E-01  0.50000500000E+01  0.50000000000E+01 0.  0.
</event>
<event>
 4    1  0.4967105E-021  0.5000050E+01  0.7818608E-02  0.2136455E+00
        -11   -1    0    0    0    0  0.00000000000E+00  0.00000000000E+00  0.50000499739E+01  0.50000500000E+01  0.51100000000E-03 0.  1.
         11   -1    0    0    0    0 -0.00000000000E+00 -0.00000000000E+00 -0.50000499739E+01  0.50000500000E+01  0.51100000000E-03 0. -1.
         50    1    1    2    0    0  0.61657439085E-02  0.80016200092E-02  0.19948939302E-01  0.50000500000E+01  0.50000000000E+01 0.  0.
         50    1    1    2    0    0 -0.61657439085E-02 -0.80016200092E-02 -0.19948939302E-01  0.50000500000E+01  0.50000000000E+01 0. -1.
</event>
<event>
 4    1  0.4967105E-021  0.5000050E+01  0.7818608E-02  0.2136455E+00
        -11   -1    0    0    0    0  0.00000000000E+00  0.00000000000E+00  0.50000499739E+01  0.50000500000E+01  0.51100000000E-03 0. -1.
         11   -1    0    0    0    0 -0.00000000000E+00 -0.00000000000E+00 -0.50000499739E+01  0.50000500000E+01  0.51100000000E-03 0.  1.
         50    1    1    2    0    0  0.35479325282E-02 -0.21443954846E-01  0.52508547239E-02  0.50000500000E+01  0.50000000000E+01 0.  1.
         50    1    1    2    0    0 -0.35479325282E-02  0.21443954846E-01 -0.52508547239E-02  0.50000500000E+01  0.50000000000E+01 0.  0.
</event>
<event>
 4    1  0.4967105E-021  0.5000050E+01  0.7818608E-02  0.2136455E+00
        -11   -1    0    0    0    0  0.00000000000E+00  0.00000000000E+00  0.50000499739E+01  0.50000500000E+01  0.51100000000E-03 0.  1.
         11   -1    0    0    0    0 -0.00000000000E+00 -0.00000000000E+00 -0.50000499739E+01  0.50000500000E+01  0.51100000000E-03 0. -1.
         50    1    1    2    0    0  0.15831983390E-01  0.13883282446E-01  0.75236474177E-02  0.50000500000E+01  0.50000000000E+01 0.  0.
         50    1    1    2    0    0 -0.15831983390E-01 -0.13883282446E-01 -0.75236474177E-02  0.50000500000E+01  0.50000000000E+01 0. -1.
</event>
<event>
 4    1  0.4967105E-021  0.5000050E+01  0.7818608E-02  0.2136455E+00
        -11   -1    0    0    0    0  0.00000000000E+00  0.00000000000E+00  0.50000499739E+01  0.50000500000E+01  0.51100000000E-03 0.  1.
         11   -1    0    0    0    0 -0.00000000000E+00 -0.00000000000E+00 -0.50000499739E+01  0.50000500000E+01  0.51100000000E-03 0. -1.
         50    1    1    2    0    0  0.71585926604E-02 -0.96073728996E-02 -0.18880027465E-01  0.50000500000E+01  0.50000000000E+01 0.  0.
         50    1    1    2    0    0 -0.71585926604E-02  0.96073728996E-02  0.18880027465E-01  0.50000500000E+01  0.50000000000E+01 0.  1.
</event>
<event>
 4    1  0.4967105E-021  0.5000050E+01  0.7818608E-02  0.2136455E+00
        -11   -1    0    0    0    0  0.00000000000E+00  0.00000000000E+00  0.50000499739E+01  0.50000500000E+01  0.51100000000E-03 0. -1.
         11   -1    0    0    0    0 -0.00000000000E+00 -0.00000000000E+00 -0.50000499739E+01  0.50000500000E+01  0.51100000000E-03 0.  1.
         50    1    1    2    0    0 -0.71933488346E-02 -0.20588400391E-01  0.49372058793E-02  0.50000500000E+01  0.50000000000E+01 0. -1.
         50    1    1    2    0    0  0.71933488346E-02  0.20588400391E-01 -0.49372058793E-02  0.50000500000E+01  0.50000000000E+01 0.  1.
</event>
<event>
 4    1  0.4967105E-021  0.5000050E+01  0.7818608E-02  0.2136455E+00
        -11   -1    0    0    0    0  0.00000000000E+00  0.00000000000E+00  0.50000499739E+01  0.50000500000E+01  0.51100000000E-03 0.  1.
         11   -1    0    0    0    0 -0.00000000000E+00 -0.00000000000E+00 -0.50000499739E+01  0.50000500000E+01  0.51100000000E-03 0. -1.
         50    1    1    2    0    0  0.35356353939E-02 -0.97782954509E-02  0.19796128925E-01  0.50000500000E+01  0.50000000000E+01 0.  0.
         50    1    1    2    0    0 -0.35356353939E-02  0.97782954509E-02 -0.19796128925E-01  0.50000500000E+01  0.50000000000E+01 0. -1.
</event>
<event>
 4    1  0.4967105E-021  0.5000050E+01  0.7818608E-02  0.2136455E+00
        -11   -1    0    0    0    0  0.00000000000E+00  0.00000000000E+00  0.50000499739E+01  0.50000500000E+01  0.51100000000E-03 0.  1.
         11   -1    0    0    0    0 -0.00000000000E+00 -0.00000000000E+00 -0.50000499739E+01  0.50000500000E+01  0.51100000000E-03 0. -1.
         50    1    1    2    0    0  0.78056151949E-02 -0.18290801866E-01 -0.10223572688E-01  0.50000500000E+01  0.50000000000E+01 0.  1.
         50    1    1    2    0    0 -0.78056151949E-02  0.18290801866E-01  0.10223572688E-01  0.50000500000E+01  0.50000000000E+01 0.  1.
</event>
<event>
 4    1  0.4967105E-021  0.5000050E+01  0.7818608E-02  0.2136455E+00
        -11   -1    0    0    0    0  0.00000000000E+00  0.00000000000E+00  0.50000499739E+01  0.50000500000E+01  0.51100000000E-03 0. -1.
         11   -1    0    0    0    0 -0.00000000000E+00 -0.00000000000E+00 -0.50000499739E+01  0.50000500000E+01  0.51100000000E-03 0.  1.
         50    1    1    2    0    0  0.16215207648E-01 -0.71309511141E-02  0.13646211091E-01  0.50000500000E+01  0.50000000000E+01 0.  0.
         50    1    1    2    0    0 -0.16215207648E-01  0.71309511141E-02 -0.13646211091E-01  0.50000500000E+01  0.50000000000E+01 0.  0.
</event>
<event>
 4    1  0.4967105E-021  0.5000050E+01  0.7818608E-02  0.2136455E+00
        -11   -1    0    0    0    0  0.00000000000E+00  0.00000000000E+00  0.50000499739E+01  0.50000500000E+01  0.51100000000E-03 0. -1.
         11   -1    0    0    0    0 -0.00000000000E+00 -0.00000000000E+00 -0.50000499739E+01  0.50000500000E+01  0.51100000000E-03 0.  1.
         50    1    1    2    0    0 -0.49392137038E-02 -0.44606155169E-02  0.21347355274E-01  0.50000500000E+01  0.50000000000E+01 0. -1.
         50    1    1    2    0    0  0.49392137038E-02  0.44606155169E-02 -0.21347355274E-01  0.50000500000E+01  0.50000000000E+01 0.  0.
</event>
<event>
 4    1  0.4967105E-021  0.5000050E+01  0.7818608E-02  0.2136455E+00
        -11   -1    0    0    0    0  0.00000000000E+00  0.00000000000E+00  0.50000499739E+01  0.50000500000E+01  0.51100000000E-03 0. -1.
         11   -1    0    0    0    0 -0.00000000000E+00 -0.00000000000E+00 -0.50000499739E+01  0.50000500000E+01  0.51100000000E-03 0.  1.
         50    1    1    2    0    0  0.16243130877E-01  0.19099324796E-02  0.15248454257E-01  0.50000500000E+01  0.50000000000E+01 0.  0.
         50    1    1    2    0    0 -0.16243130877E-01 -0.19099324796E-02 -0.15248454257E-01  0.50000500000E+01  0.50000000000E+01 0.  0.
</event>
<event>
 4    1  0.4967105E-021  0.5000050E+01  0.7818608E-02  0.2136455E+00
        -11   -1    0    0    0    0  0.00000000000E+00  0.00000000000E+00  0.50000499739E+01  0.50000500000E+01  0.51100000000E-03 0. -1.
         11   -1    0    0    0    0 -0.00000000000E+00 -0.00000000000E+00 -0.50000499739E+01  0.50000500000E+01  0.51100000000E-03 0.  1.
         50    1    1    2    0    0  0.17525827403E-02  0.22288655426E-01 -0.38313579890E-03  0.50000500000E+01  0.50000000000E+01 0.  1.
         50    1    1    2    0    0 -0.17525827403E-02 -0.22288655426E-01  0.38313579890E-03  0.50000500000E+01  0.50000000000E+01 0. -1.
</event>
<event>
 4    1  0.4967105E-021  0.5000050E+01  0.7818608E-02  0.2136455E+00
        -11   -1    0    0    0    0  0.00000000000E+00  0.00000000000E+00  0.50000499739E+01  0.50000500000E+01  0.51100000000E-03 0.  1.
         11   -1    0    0    0    0 -0.00000000000E+00 -0.00000000000E+00 -0.50000499739E+01  0.50000500000E+01  0.51100000000E-03 0. -1.
         50    1    1    2    0    0  0.17252424841E-01  0.10695608164E-01 -0.93787154292E-02  0.50000500000E+01  0.50000000000E+01 0.  0.
         50    1    1    2    0    0 -0.17252424841E-01 -0.10695608164E-01  0.93787154292E-02  0.50000500000E+01  0.50000000000E+01 0.  0.
</event>
<event>
 4    1  0.4967105E-021  0.5000050E+01  0.7818608E-02  0.2136455E+00
        -11   -1    0    0    0    0  0.00000000000E+00  0.00000000000E+00  0.50000499739E+01  0.50000500000E+01  0.51100000000E-03 0. -1.
         11   -1    0    0    0    0 -0.00000000000E+00 -0.00000000000E+00 -0.50000499739E+01  0.50000500000E+01  0.51100000000E-03 0.  1.
         50    1    1    2    0    0 -0.57999163491E-02  0.19876659791E-01  0.84428588705E-02  0.50000500000E+01  0.50000000000E+01 0. -1.
         50    1    1    2    0    0  0.57999163491E-02 -0.19876659791E-01 -0.84428588705E-02  0.50000500000E+01  0.50000000000E+01 0.  1.
</event>
<event>
 4    1  0.4967105E-021  0.5000050E+01  0.7818608E-02  0.2136455E+00
        -11   -1    0    0    0    0  0.00000000000E+00  0.00000000000E+00  0.50000499739E+01  0.50000500000E+01  0.51100000000E-03 0.  1.
         11   -1    0    0    0    0 -0.00000000000E+00 -0.00000000000E+00 -0.50000499739E+01  0.50000500000E+01  0.51100000000E-03 0. -1.
         50    1    1    2    0    0  0.92529040722E-02 -0.19730265325E-01  0.50102790778E-02  0.50000500000E+01  0.50000000000E+01 0. -1.
         50    1    1    2    0    0 -0.92529040722E-02  0.19730265325E-01 -0.50102790778E-02  0.50000500000E+01  0.50000000000E+01 0.  1.
</event>
<event>
 4    1  0.4967105E-021  0.5000050E+01  0.7818608E-02  0.2136455E+00
        -11   -1    0    0    0    0  0.00000000000E+00  0.00000000000E+00  0.50000499739E+01  0.50000500000E+01  0.51100000000E-03 0. -1.
         11   -1    0    0    0    0 -0.00000000000E+00 -0.00000000000E+00 -0.50000499739E+01  0.50000500000E+01  0.51100000000E-03 0.  1.
         50    1    1    2    0    0  0.12544900705E-01 -0.17975280147E-01  0.44178354354E-02  0.50000500000E+01  0.50000000000E+01 0.  1.
         50    1    1    2    0    0 -0.12544900705E-01  0.17975280147E-01 -0.44178354354E-02  0.50000500000E+01  0.50000000000E+01 0. -1.
</event>
<event>
 4    1  0.4967105E-021  0.5000050E+01  0.7818608E-02  0.2136455E+00
        -11   -1    0    0    0    0  0.00000000000E+00  0.00000000000E+00  0.50000499739E+01  0.50000500000E+01  0.51100000000E-03 0.  1.
         11   -1    0    0    0    0 -0.00000000000E+00 -0.00000000000E+00 -0.50000499739E+01  0.50000500000E+01  0.51100000000E-03 0. -1.
         50    1    1    2    0    0  0.12490256229E-01 -0.40603345478E-02 -0.18097228591E-01  0.50000500000E+01  0.50000000000E+01 0.  0.
         50    1    1    2    0    0 -0.12490256229E-01  0.40603345478E-02  0.18097228591E-01  0.50000500000E+01  0.50000000000E+01 0.  1.
</event>
<event>
 4    1  0.4967105E-021  0.5000050E+01  0.7818608E-02  0.2136455E+00
        -11   -1    0    0    0    0  0.00000000000E+00  0.00000000000E+00  0.50000499739E+01  0.50000500000E+01  0.51100000000E-03 0.  1.
         11   -1    0    0    0    0 -0.00000000000E+00 -0.00000000000E+00 -0.50000499739E+01  0.50000500000E+01  0.51100000000E-03 0. -1.
         50    1    1    2    0    0 -0.22051467611E-01  0.37033896154E-02  0.14206177623E-03  0.50000500000E+01  0.50000000000E+01 0.  1.
         50    1    1    2    0    0  0.22051467611E-01 -0.37033896154E-02 -0.14206177623E-03  0.50000500000E+01  0.50000000000E+01 0. -1.
</event>
<event>
 4    1  0.4967105E-021  0.5000050E+01  0.7818608E-02  0.2136455E+00
        -11   -1    0    0    0    0  0.00000000000E+00  0.00000000000E+00  0.50000499739E+01  0.50000500000E+01  0.51100000000E-03 0.  1.
         11   -1    0    0    0    0 -0.00000000000E+00 -0.00000000000E+00 -0.50000499739E+01  0.50000500000E+01  0.51100000000E-03 0. -1.
         50    1    1    2    0    0  0.25606171949E-02 -0.17962124254E-01  0.13069347033E-01  0.50000500000E+01  0.50000000000E+01 0.  1.
         50    1    1    2    0    0 -0.25606171949E-02  0.17962124254E-01 -0.13069347033E-01  0.50000500000E+01  0.50000000000E+01 0. -1.
</event>
<event>
 4    1  0.4967105E-021  0.5000050E+01  0.7818608E-02  0.2136455E+00
        -11   -1    0    0    0    0  0.00000000000E+00  0.00000000000E+00  0.50000499739E+01  0.50000500000E+01  0.51100000000E-03 0.  1.
         11   -1    0    0    0    0 -0.00000000000E+00 -0.00000000000E+00 -0.50000499739E+01  0.50000500000E+01  0.51100000000E-03 0. -1.
         50    1    1    2    0    0  0.10413263454E-01  0.13169285853E-01 -0.14769439879E-01  0.50000500000E+01  0.50000000000E+01 0.  1.
         50    1    1    2    0    0 -0.10413263454E-01 -0.13169285853E-01  0.14769439879E-01  0.50000500000E+01  0.50000000000E+01 0.  0.
</event>
<event>
 4    1  0.4967105E-021  0.5000050E+01  0.7818608E-02  0.2136455E+00
        -11   -1    0    0    0    0  0.00000000000E+00  0.00000000000E+00  0.50000499739E+01  0.50000500000E+01  0.51100000000E-03 0. -1.
         11   -1    0    0    0    0 -0.00000000000E+00 -0.00000000000E+00 -0.50000499739E+01  0.50000500000E+01  0.51100000000E-03 0.  1.
         50    1    1    2    0    0 -0.19059051797E-01  0.83177611640E-02  0.82200908646E-02  0.50000500000E+01  0.50000000000E+01 0. -1.
         50    1    1    2    0    0  0.19059051797E-01 -0.83177611640E-02 -0.82200908646E-02  0.50000500000E+01  0.50000000000E+01 0.  1.
</event>
<event>
 4    1  0.4967105E-021  0.5000050E+01  0.7818608E-02  0.2136455E+00
        -11   -1    0    0    0    0  0.00000000000E+00  0.00000000000E+00  0.50000499739E+01  0.50000500000E+01  0.51100000000E-03 0.  1.
         11   -1    0    0    0    0 -0.00000000000E+00 -0.00000000000E+00 -0.50000499739E+01  0.50000500000E+01  0.51100000000E-03 0. -1.
         50    1    1    2    0    0 -0.86168637013E-02 -0.20064213578E-01  0.48145086384E-02  0.50000500000E+01  0.50000000000E+01 0.  1.
         50    1    1    2    0    0  0.86168637013E-02  0.20064213578E-01 -0.48145086384E-02  0.50000500000E+01  0.50000000000E+01 0.  0.
</event>
<event>
 4    1  0.4967105E-021  0.5000050E+01  0.7818608E-02  0.2136455E+00
        -11   -1    0    0    0    0  0.00000000000E+00  0.00000000000E+00  0.50000499739E+01  0.50000500000E+01  0.51100000000E-03 0. -1.
         11   -1    0    0    0    0 -0.00000000000E+00 -0.00000000000E+00 -0.50000499739E+01  0.50000500000E+01  0.51100000000E-03 0.  1.
         50    1    1    2    0    0 -0.10058513553E-01  0.19620515302E-01  0.37234640274E-02  0.50000500000E+01  0.50000000000E+01 0.  1.
         50    1    1    2    0    0  0.10058513553E-01 -0.19620515302E-01 -0.37234640274E-02  0.50000500000E+01  0.50000000000E+01 0.  0.
</event>
<event>
 4    1  0.4967105E-021  0.5000050E+01  0.7818608E-02  0.2136455E+00
        -11   -1    0    0    0    0  0.00000000000E+00  0.00000000000E+00  0.50000499739E+01  0.50000500000E+01  0.51100000000E-03 0.  1.
         11   -1    0    0    0    0 -0.00000000000E+00 -0.00000000000E+00 -0.50000499739E+01  0.50000500000E+01  0.51100000000E-03 0. -1.
         50    1    1    2    0    0  0.77179614963E-02  0.13475356255E-01  0.16088826686E-01  0.50000500000E+01  0.50000000000E+01 0.  0.
         50    1    1    2    0    0 -0.77179614963E-02 -0.13475356255E-01 -0.16088826686E-01  0.50000500000E+01  0.50000000000E+01 0.  0.
</event>
<event>
 4    1  0.4967105E-021  0.5000050E+01  0.7818608E-02  0.2136455E+00
        -11   -1    0    0    0    0  0.00000000000E+00  0.00000000000E+00  0.50000499739E+01  0.50000500000E+01  0.51100000000E-03 0. -1.
         11   -1    0    0    0    0 -0.00000000000E+00 -0.00000000000E+00 -0.50000499739E+01  0.50000500000E+01  0.51100000000E-03 0.  1.
         50    1    1    2    0    0  0.20317735403E-02 -0.57576243174E-02 -0.21511024116E-01  0.50000500000E+01  0.50000000000E+01 0.  0.
         50    1    1    2    0    0 -0.20317735403E-02  0.57576243174E-02  0.21511024116E-01  0.50000500000E+01  0.50000000000E+01 0. -1.
</event>
<event>
 4    1  0.4967105E-021  0.5000050E+01  0.7818608E-02  0.2136455E+00
        -11   -1    0    0    0    0  0.00000000000E+00  0.00000000000E+00  0.50000499739E+01  0.50000500000E+01  0.51100000000E-03 0.  1.
         11   -1    0    0    0    0 -0.00000000000E+00 -0.00000000000E+00 -0.50000499739E+01  0.50000500000E+01  0.51100000000E-03 0. -1.
         50    1    1    2    0    0 -0.20648337021E-01 -0.20498619639E-02  0.83334713171E-02  0.50000500000E+01  0.50000000000E+01 0. -1.
         50    1    1    2    0    0  0.20648337021E-01  0.20498619639E-02 -0.83334713171E-02  0.50000500000E+01  0.50000000000E+01 0. -1.
</event>
<event>
 4    1  0.4967105E-021  0.5000050E+01  0.7818608E-02  0.2136455E+00
        -11   -1    0    0    0    0  0.00000000000E+00  0.00000000000E+00  0.50000499739E+01  0.50000500000E+01  0.51100000000E-03 0. -1.
         11   -1    0    0    0    0 -0.00000000000E+00 -0.00000000000E+00 -0.50000499739E+01  0.50000500000E+01  0.51100000000E-03 0.  1.
         50    1    1    2    0    0 -0.12766020248E-01  0.14559456726E-01 -0.11182729850E-01  0.50000500000E+01  0.50000000000E+01 0.  1.
         50    1    1    2    0    0  0.12766020248E-01 -0.14559456726E-01  0.11182729850E-01  0.50000500000E+01  0.50000000000E+01 0. -1.
</event>
<event>
 4    1  0.4967105E-021  0.5000050E+01  0.7818608E-02  0.2136455E+00
        -11   -1    0    0    0    0  0.00000000000E+00  0.00000000000E+00  0.50000499739E+01  0.50000500000E+01  0.51100000000E-03 0.  1.
         11   -1    0    0    0    0 -0.00000000000E+00 -0.00000000000E+00 -0.50000499739E+01  0.50000500000E+01  0.51100000000E-03 0. -1.
         50    1    1    2    0    0  0.19517500333E-01  0.50876893635E-02  0.96532428585E-02  0.50000500000E+01  0.50000000000E+01 0.  1.
         50    1    1    2    0    0 -0.19517500333E-01 -0.50876893635E-02 -0.96532428585E-02  0.50000500000E+01  0.50000000000E+01 0. -1.
</event>
<event>
 4    1  0.4967105E-021  0.5000050E+01  0.7818608E-02  0.2136455E+00
        -11   -1    0    0    0    0  0.00000000000E+00  0.00000000000E+00  0.50000499739E+01  0.50000500000E+01  0.51100000000E-03 0.  1.
         11   -1    0    0    0    0 -0.00000000000E+00 -0.00000000000E+00 -0.50000499739E+01  0.50000500000E+01  0.51100000000E-03 0. -1.
         50    1    1    2    0    0 -0.17897633347E-01 -0.87592712292E-02 -0.10146545624E-01  0.50000500000E+01  0.50000000000E+01 0. -1.
         50    1    1    2    0    0  0.17897633347E-01  0.87592712292E-02  0.10146545624E-01  0.50000500000E+01  0.50000000000E+01 0.  1.
</event>
<event>
 4    1  0.4967105E-021  0.5000050E+01  0.7818608E-02  0.2136455E+00
        -11   -1    0    0    0    0  0.00000000000E+00  0.00000000000E+00  0.50000499739E+01  0.50000500000E+01  0.51100000000E-03 0. -1.
         11   -1    0    0    0    0 -0.00000000000E+00 -0.00000000000E+00 -0.50000499739E+01  0.50000500000E+01  0.51100000000E-03 0.  1.
         50    1    1    2    0    0 -0.38407128450E-02 -0.21465350898E-01 -0.49487509200E-02  0.50000500000E+01  0.50000000000E+01 0. -1.
         50    1    1    2    0    0  0.38407128450E-02  0.21465350898E-01  0.49487509200E-02  0.50000500000E+01  0.50000000000E+01 0.  1.
</event>
<event>
 4    1  0.4967105E-021  0.5000050E+01  0.7818608E-02  0.2136455E+00
        -11   -1    0    0    0    0  0.00000000000E+00  0.00000000000E+00  0.50000499739E+01  0.50000500000E+01  0.51100000000E-03 0. -1.
         11   -1    0    0    0    0 -0.00000000000E+00 -0.00000000000E+00 -0.50000499739E+01  0.50000500000E+01  0.51100000000E-03 0.  1.
         50    1    1    2    0    0 -0.78260677532E-02 -0.79723749071E-02  0.19369987141E-01  0.50000500000E+01  0.50000000000E+01 0.  0.
         50    1    1    2    0    0  0.78260677532E-02  0.79723749071E-02 -0.19369987141E-01  0.50000500000E+01  0.50000000000E+01 0.  1.
</event>
<event>
 4    1  0.4967105E-021  0.5000050E+01  0.7818608E-02  0.2136455E+00
        -11   -1    0    0    0    0  0.00000000000E+00  0.00000000000E+00  0.50000499739E+01  0.50000500000E+01  0.51100000000E-03 0.  1.
         11   -1    0    0    0    0 -0.00000000000E+00 -0.00000000000E+00 -0.50000499739E+01  0.50000500000E+01  0.51100000000E-03 0. -1.
         50    1    1    2    0    0 -0.12038390339E-01  0.70139658325E-02 -0.17489538054E-01  0.50000500000E+01  0.50000000000E+01 0. -1.
         50    1    1    2    0    0  0.12038390339E-01 -0.70139658325E-02  0.17489538054E-01  0.50000500000E+01  0.50000000000E+01 0. -1.
</event>
<event>
 4    1  0.4967105E-021  0.5000050E+01  0.7818608E-02  0.2136455E+00
        -11   -1    0    0    0    0  0.00000000000E+00  0.00000000000E+00  0.50000499739E+01  0.50000500000E+01  0.51100000000E-03 0. -1.
         11   -1    0    0    0    0 -0.00000000000E+00 -0.00000000000E+00 -0.50000499739E+01  0.50000500000E+01  0.51100000000E-03 0.  1.
         50    1    1    2    0    0 -0.36487716115E-02  0.18524598216E-01  0.11980326651E-01  0.50000500000E+01  0.50000000000E+01 0. -1.
         50    1    1    2    0    0  0.36487716115E-02 -0.18524598216E-01 -0.11980326651E-01  0.50000500000E+01  0.50000000000E+01 0.  1.
</event>
<event>
 4    1  0.4967105E-021  0.5000050E+01  0.7818608E-02  0.2136455E+00
        -11   -1    0    0    0    0  0.00000000000E+00  0.00000000000E+00  0.50000499739E+01  0.50000500000E+01  0.51100000000E-03 0. -1.
         11   -1    0    0    0    0 -0.00000000000E+00 -0.00000000000E+00 -0.50000499739E+01  0.50000500000E+01  0.51100000000E-03 0.  1.
         50    1    1    2    0    0  0.16130264245E-01  0.13578032019E-01  0.74467524371E-02  0.50000500000E+01  0.50000000000E+01 0.  0.
         50    1    1    2    0    0 -0.16130264245E-01 -0.13578032019E-01 -0.74467524371E-02  0.50000500000E+01  0.50000000000E+01 0. -1.
</event>
<event>
 4    1  0.4967105E-021  0.5000050E+01  0.7818608E-02  0.2136455E+00
        -11   -1    0    0    0    0  0.00000000000E+00  0.00000000000E+00  0.50000499739E+01  0.50000500000E+01  0.51100000000E-03 0. -1.
         11   -1    0    0    0    0 -0.00000000000E+00 -0.00000000000E+00 -0.50000499739E+01  0.50000500000E+01  0.51100000000E-03 0.  1.
         50    1    1    2    0    0  0.56379631578E-02 -0.21286407389E-01 -0.38864806595E-02  0.50000500000E+01  0.50000000000E+01 0.  0.
         50    1    1    2    0    0 -0.56379631578E-02  0.21286407389E-01  0.38864806595E-02  0.50000500000E+01  0.50000000000E+01 0.  0.
</event>
<event>
 4    1  0.4967105E-021  0.5000050E+01  0.7818608E-02  0.2136455E+00
        -11   -1    0    0    0    0  0.00000000000E+00  0.00000000000E+00  0.50000499739E+01  0.50000500000E+01  0.51100000000E-03 0.  1.
         11   -1    0    0    0    0 -0.00000000000E+00 -0.00000000000E+00 -0.50000499739E+01  0.50000500000E+01  0.51100000000E-03 0. -1.
         50    1    1    2    0    0 -0.15179249087E-01 -0.93291890931E-02  0.13511444335E-01  0.50000500000E+01  0.50000000000E+01 0.  1.
         50    1    1    2    0    0  0.15179249087E-01  0.93291890931E-02 -0.13511444335E-01  0.50000500000E+01  0.50000000000E+01 0.  1.
</event>
<event>
 4    1  0.4967105E-021  0.5000050E+01  0.7818608E-02  0.2136455E+00
        -11   -1    0    0    0    0  0.00000000000E+00  0.00000000000E+00  0.50000499739E+01  0.50000500000E+01  0.51100000000E-03 0. -1.
         11   -1    0    0    0    0 -0.00000000000E+00 -0.00000000000E+00 -0.50000499739E+01  0.50000500000E+01  0.51100000000E-03 0.  1.
         50    1    1    2    0    0 -0.19616356229E-01 -0.99735042290E-02  0.39661419141E-02  0.50000500000E+01  0.50000000000E+01 0.  1.
         50    1    1    2    0    0  0.19616356229E-01  0.99735042290E-02 -0.39661419141E-02  0.50000500000E+01  0.50000000000E+01 0.  0.
</event>
<event>
 4    1  0.4967105E-021  0.5000050E+01  0.7818608E-02  0.2136455E+00
        -11   -1    0    0    0    0  0.00000000000E+00  0.00000000000E+00  0.50000499739E+01  0.50000500000E+01  0.51100000000E-03 0. -1.
         11   -1    0    0    0    0 -0.00000000000E+00 -0.00000000000E+00 -0.50000499739E+01  0.50000500000E+01  0.51100000000E-03 0.  1.
         50    1    1    2    0    0 -0.12302158888E-01  0.25496723590E-03 -0.18670682323E-01  0.50000500000E+01  0.50000000000E+01 0.  1.
         50    1    1    2    0    0  0.12302158888E-01 -0.25496723590E-03  0.18670682323E-01  0.50000500000E+01  0.50000000000E+01 0.  1.
</event>
<event>
 4    1  0.4967105E-021  0.5000050E+01  0.7818608E-02  0.2136455E+00
        -11   -1    0    0    0    0  0.00000000000E+00  0.00000000000E+00  0.50000499739E+01  0.50000500000E+01  0.51100000000E-03 0.  1.
         11   -1    0    0    0    0 -0.00000000000E+00 -0.00000000000E+00 -0.50000499739E+01  0.50000500000E+01  0.51100000000E-03 0. -1.
         50    1    1    2    0    0  0.74777277092E-02 -0.64096598668E-03  0.21063600141E-01  0.50000500000E+01  0.50000000000E+01 0. -1.
         50    1    1    2    0    0 -0.74777277092E-02  0.64096598668E-03 -0.21063600141E-01  0.50000500000E+01  0.50000000000E+01 0. -1.
</event>
<event>
 4    1  0.4967105E-021  0.5000050E+01  0.7818608E-02  0.2136455E+00
        -11   -1    0    0    0    0  0.00000000000E+00  0.00000000000E+00  0.50000499739E+01  0.50000500000E+01  0.51100000000E-03 0.  1.
         11   -1    0    0    0    0 -0.00000000000E+00 -0.00000000000E+00 -0.50000499739E+01  0.50000500000E+01  0.51100000000E-03 0. -1.
         50    1    1    2    0    0 -0.92138099112E-02 -0.20374172915E-01  0.35846161782E-04  0.50000500000E+01  0.50000000000E+01 0.  1.
         50    1    1    2    0    0  0.92138099112E-02  0.20374172915E-01 -0.35846161782E-04  0.50000500000E+01  0.50000000000E+01 0.  0.
</event>
<event>
 4    1  0.4967105E-021  0.5000050E+01  0.7818608E-02  0.2136455E+00
        -11   -1    0    0    0    0  0.00000000000E+00  0.00000000000E+00  0.50000499739E+01  0.50000500000E+01  0.51100000000E-03 0.  1.
         11   -1    0    0    0    0 -0.00000000000E+00 -0.00000000000E+00 -0.50000499739E+01  0.50000500000E+01  0.51100000000E-03 0. -1.
         50    1    1    2    0    0 -0.11280429016E-01  0.59498781523E-02  0.18367181906E-01  0.50000500000E+01  0.50000000000E+01 0.  0.
         50    1    1    2    0    0  0.11280429016E-01 -0.59498781523E-02 -0.18367181906E-01  0.50000500000E+01  0.50000000000E+01 0. -1.
</event>
<event>
 4    1  0.4967105E-021  0.5000050E+01  0.7818608E-02  0.2136455E+00
        -11   -1    0    0    0    0  0.00000000000E+00  0.00000000000E+00  0.50000499739E+01  0.50000500000E+01  0.51100000000E-03 0. -1.
         11   -1    0    0    0    0 -0.00000000000E+00 -0.00000000000E+00 -0.50000499739E+01  0.50000500000E+01  0.51100000000E-03 0.  1.
         50    1    1    2    0    0  0.13193615981E-01 -0.10510587546E-01  0.14678506285E-01  0.50000500000E+01  0.50000000000E+01 0. -1.
         50    1    1    2    0    0 -0.13193615981E-01  0.10510587546E-01 -0.14678506285E-01  0.50000500000E+01  0.50000000000E+01 0.  1.
</event>
<event>
 4    1  0.4967105E-021  0.5000050E+01  0.7818608E-02  0.2136455E+00
        -11   -1    0    0    0    0  0.00000000000E+00  0.00000000000E+00  0.50000499739E+01  0.50000500000E+01  0.51100000000E-03 0.  1.
         11   -1    0    0    0    0 -0.00000000000E+00 -0.00000000000E+00 -0.50000499739E+01  0.50000500000E+01  0.51100000000E-03 0. -1.
         50    1    1    2    0    0 -0.19601739437E-01  0.50697463643E-02  0.94906260513E-02  0.50000500000E+01  0.50000000000E+01 0.  0.
         50    1    1    2    0    0  0.19601739437E-01 -0.50697463643E-02 -0.94906260513E-02  0.50000500000E+01  0.50000000000E+01 0.  0.
</event>
<event>
 4    1  0.4967105E-021  0.5000050E+01  0.7818608E-02  0.2136455E+00
        -11   -1    0    0    0    0  0.00000000000E+00  0.00000000000E+00  0.50000499739E+01  0.50000500000E+01  0.51100000000E-03 0.  1.
         11   -1    0    0    0    0 -0.00000000000E+00 -0.00000000000E+00 -0.50000499739E+01  0.50000500000E+01  0.51100000000E-03 0. -1.
         50    1    1    2    0    0  0.18565245523E-01 -0.10536494504E-01  0.66570595788E-02  0.50000500000E+01  0.50000000000E+01 0.  0.
         50    1    1    2    0    0 -0.18565245523E-01  0.10536494504E-01 -0.66570595788E-02  0.50000500000E+01  0.50000000000E+01 0.  0.
</event>
<event>
 4    1  0.4967105E-021  0.5000050E+01  0.7818608E-02  0.2136455E+00
        -11   -1    0    0    0    0  0.00000000000E+00  0.00000000000E+00  0.50000499739E+01  0.50000500000E+01  0.51100000000E-03 0. -1.
         11   -1    0    0    0    0 -0.00000000000E+00 -0.00000000000E+00 -0.50000499739E+01  0.50000500000E+01  0.51100000000E-03 0.  1.
         50    1    1    2    0    0  0.10293675391E-01  0.42300353245E-02 -0.19394575224E-01  0.50000500000E+01  0.50000000000E+01 0.  1.
         50    1    1    2    0    0 -0.10293675391E-01 -0.42300353245E-02  0.19394575224E-01  0.50000500000E+01  0.50000000000E+01 0.  0.
</event>
<event>
 4    1  0.4967105E-021  0.5000050E+01  0.7818608E-02  0.2136455E+00
        -11   -1    0    0    0    0  0.00000000000E+00  0.00000000000E+00  0.50000499739E+01  0.50000500000E+01  0.51100000000E-03 0.  1.
         11   -1    0    0    0    0 -0.00000000000E+00 -0.00000000000E+00 -0.50000499739E+01  0.50000500000E+01  0.51100000000E-03 0. -1.
         50    1    1    2    0    0 -0.13505843632E-01 -0.14488415459E-01 -0.10376921762E-01  0.50000500000E+01  0.50000000000E+01 0.  0.
         50    1    1    2    0    0  0.13505843632E-01  0.14488415459E-01  0.10376921762E-01  0.50000500000E+01  0.50000000000E+01 0.  0.
</event>
<event>
 4    1  0.4967105E-021  0.5000050E+01  0.7818608E-02  0.2136455E+00
        -11   -1    0    0    0    0  0.00000000000E+00  0.00000000000E+00  0.50000499739E+01  0.50000500000E+01  0.51100000000E-03 0.  1.
         11   -1    0    0    0    0 -0.00000000000E+00 -0.00000000000E+00 -0.50000499739E+01  0.50000500000E+01  0.51100000000E-03 0. -1.
         50    1    1    2    0    0 -0.29312198141E-02  0.11718541302E-02  0.22136784055E-01  0.50000500000E+01  0.50000000000E+01 0.  0.
         50    1    1    2    0    0  0.29312198141E-02 -0.11718541302E-02 -0.22136784055E-01  0.50000500000E+01  0.50000000000E+01 0. -1.
</event>
<event>
 4    1  0.4967105E-021  0.5000050E+01  0.7818608E-02  0.2136455E+00
        -11   -1    0    0    0    0  0.00000000000E+00  0.00000000000E+00  0.50000499739E+01  0.50000500000E+01  0.51100000000E-03 0.  1.
         11   -1    0    0    0    0 -0.00000000000E+00 -0.00000000000E+00 -0.50000499739E+01  0.50000500000E+01  0.51100000000E-03 0. -1.
         50    1    1    2    0    0 -0.21887299728E-01 -0.45522373560E-02 -0.47512702235E-03  0.50000500000E+01  0.50000000000E+01 0. -1.
         50    1    1    2    0    0  0.21887299728E-01  0.45522373560E-02  0.47512702234E-03  0.50000500000E+01  0.50000000000E+01 0.  1.
</event>
<event>
 4    1  0.4967105E-021  0.5000050E+01  0.7818608E-02  0.2136455E+00
        -11   -1    0    0    0    0  0.00000000000E+00  0.00000000000E+00  0.50000499739E+01  0.50000500000E+01  0.51100000000E-03 0. -1.
         11   -1    0    0    0    0 -0.00000000000E+00 -0.00000000000E+00 -0.50000499739E+01  0.50000500000E+01  0.51100000000E-03 0.  1.
         50    1    1    2    0    0 -0.81195378416E-02  0.14800884107E-01 -0.14663200022E-01  0.50000500000E+01  0.50000000000E+01 0. -1.
         50    1    1    2    0    0  0.81195378416E-02 -0.14800884107E-01  0.14663200022E-01  0.50000500000E+01  0.50000000000E+01 0.  0.
</event>
<event>
 4    1  0.4967105E-021  0.5000050E+01  0.7818608E-02  0.2136455E+00
        -11   -1    0    0    0    0  0.00000000000E+00  0.00000000000E+00  0.50000499739E+01  0.50000500000E+01  0.51100000000E-03 0. -1.
         11   -1    0    0    0    0 -0.00000000000E+00 -0.00000000000E+00 -0.50000499739E+01  0.50000500000E+01  0.51100000000E-03 0.  1.
         50    1    1    2    0    0 -0.40431168671E-02  0.21905357665E-01  0.19521812378E-02  0.50000500000E+01  0.50000000000E+01 0. -1.
         50    1    1    2    0    0  0.40431168671E-02 -0.21905357665E-01 -0.19521812378E-02  0.50000500000E+01  0.50000000000E+01 0.  0.
</event>
<event>
 4    1  0.4967105E-021  0.5000050E+01  0.7818608E-02  0.2136455E+00
        -11   -1    0    0    0    0  0.00000000000E+00  0.00000000000E+00  0.50000499739E+01  0.50000500000E+01  0.51100000000E-03 0.  1.
         11   -1    0    0    0    0 -0.00000000000E+00 -0.00000000000E+00 -0.50000499739E+01  0.50000500000E+01  0.51100000000E-03 0. -1.
         50    1    1    2    0    0 -0.10843730729E-01 -0.59119044154E-02 -0.18640423548E-01  0.50000500000E+01  0.50000000000E+01 0.  0.
         50    1    1    2    0    0  0.10843730729E-01  0.59119044154E-02  0.18640423548E-01  0.50000500000E+01  0.50000000000E+01 0.  0.
</event>
<event>
 4    1  0.4967105E-021  0.5000050E+01  0.7818608E-02  0.2136455E+00
        -11   -1    0    0    0    0  0.00000000000E+00  0.00000000000E+00  0.50000499739E+01  0.50000500000E+01  0.51100000000E-03 0.  1.
         11   -1    0    0    0    0 -0.00000000000E+00 -0.00000000000E+00 -0.50000499739E+01  0.50000500000E+01  0.51100000000E-03 0. -1.
         50    1    1    2    0    0  0.45310847163E-02 -0.21495966609E-01  0.41707542301E-02  0.50000500000E+01  0.50000000000E+01 0.  1.
         50    1    1    2    0    0 -0.45310847163E-02  0.21495966609E-01 -0.41707542301E-02  0.50000500000E+01  0.50000000000E+01 0.  0.
</event>
<event>
 4    1  0.4967105E-021  0.5000050E+01  0.7818608E-02  0.2136455E+00
        -11   -1    0    0    0    0  0.00000000000E+00  0.00000000000E+00  0.50000499739E+01  0.50000500000E+01  0.51100000000E-03 0.  1.
         11   -1    0    0    0    0 -0.00000000000E+00 -0.00000000000E+00 -0.50000499739E+01  0.50000500000E+01  0.51100000000E-03 0. -1.
         50    1    1    2    0    0 -0.10622012422E-01  0.18204584841E-01  0.74678271840E-02  0.50000500000E+01  0.50000000000E+01 0.  1.
         50    1    1    2    0    0  0.10622012422E-01 -0.18204584841E-01 -0.74678271840E-02  0.50000500000E+01  0.50000000000E+01 0.  1.
</event>
<event>
 4    1  0.4967105E-021  0.5000050E+01  0.7818608E-02  0.2136455E+00
        -11   -1    0    0    0    0  0.00000000000E+00  0.00000000000E+00  0.50000499739E+01  0.50000500000E+01  0.51100000000E-03 0. -1.
         11   -1    0    0    0    0 -0.00000000000E+00 -0.00000000000E+00 -0.50000499739E+01  0.50000500000E+01  0.51100000000E-03 0.  1.
         50    1    1    2    0    0  0.14662281964E-02 -0.15208937448E-01  0.16326080257E-01  0.50000500000E+01  0.50000000000E+01 0.  1.
         50    1    1    2    0    0 -0.14662281964E-02  0.15208937448E-01 -0.16326080257E-01  0.50000500000E+01  0.50000000000E+01 0.  1.
</event>
<event>
 4    1  0.4967105E-021  0.5000050E+01  0.7818608E-02  0.2136455E+00
        -11   -1    0    0    0    0  0.00000000000E+00  0.00000000000E+00  0.50000499739E+01  0.50000500000E+01  0.51100000000E-03 0. -1.
         11   -1    0    0    0    0 -0.00000000000E+00 -0.00000000000E+00 -0.50000499739E+01  0.50000500000E+01  0.51100000000E-03 0.  1.
         50    1    1    2    0    0 -0.87681042453E-03 -0.21101739450E-01  0.73450864966E-02  0.50000500000E+01  0.50000000000E+01 0.  0.
         50    1    1    2    0    0  0.87681042453E-03  0.21101739450E-01 -0.73450864966E-02  0.50000500000E+01  0.50000000000E+01 0. -1.
</event>
<event>
 4    1  0.4967105E-021  0.5000050E+01  0.7818608E-02  0.2136455E+00
        -11   -1    0    0    0    0  0.00000000000E+00  0.00000000000E+00  0.50000499739E+01  0.50000500000E+01  0.51100000000E-03 0.  1.
         11   -1    0    0    0    0 -0.00000000000E+00 -0.00000000000E+00 -0.50000499739E+01  0.50000500000E+01  0.51100000000E-03 0. -1.
         50    1    1    2    0    0 -0.75585919290E-02 -0.20653983055E-01 -0.40352412572E-02  0.50000500000E+01  0.50000000000E+01 0.  0.
         50    1    1    2    0    0  0.75585919290E-02  0.20653983055E-01  0.40352412572E-02  0.50000500000E+01  0.50000000000E+01 0. -1.
</event>
<event>
 4    1  0.4967105E-021  0.5000050E+01  0.7818608E-02  0.2136455E+00
        -11   -1    0    0    0    0  0.00000000000E+00  0.00000000000E+00  0.50000499739E+01  0.50000500000E+01  0.51100000000E-03 0. -1.
         11   -1    0    0    0    0 -0.00000000000E+00 -0.00000000000E+00 -0.50000499739E+01  0.50000500000E+01  0.51100000000E-03 0.  1.
         50    1    1    2    0    0  0.39983578938E-02  0.20566730956E-01  0.78118635368E-02  0.50000500000E+01  0.50000000000E+01 0. -1.
         50    1    1    2    0    0 -0.39983578938E-02 -0.20566730956E-01 -0.78118635368E-02  0.50000500000E+01  0.50000000000E+01 0.  1.
</event>
<event>
 4    1  0.4967105E-021  0.5000050E+01  0.7818608E-02  0.2136455E+00
        -11   -1    0    0    0    0  0.00000000000E+00  0.00000000000E+00  0.50000499739E+01  0.50000500000E+01  0.51100000000E-03 0.  1.
         11   -1    0    0    0    0 -0.00000000000E+00 -0.00000000000E+00 -0.50000499739E+01  0.50000500000E+01  0.51100000000E-03 0. -1.
         50    1    1    2    0    0  0.12213333129E-01  0.11785236545E-01 -0.14558337592E-01  0.50000500000E+01  0.50000000000E+01 0. -1.
         50    1    1    2    0    0 -0.12213333129E-01 -0.11785236545E-01  0.14558337592E-01  0.50000500000E+01  0.50000000000E+01 0.  1.
</event>
<event>
 4    1  0.4967105E-021  0.5000050E+01  0.7818608E-02  0.2136455E+00
        -11   -1    0    0    0    0  0.00000000000E+00  0.00000000000E+00  0.50000499739E+01  0.50000500000E+01  0.51100000000E-03 0. -1.
         11   -1    0    0    0    0 -0.00000000000E+00 -0.00000000000E+00 -0.50000499739E+01  0.50000500000E+01  0.51100000000E-03 0.  1.
         50    1    1    2    0    0  0.86615065608E-02 -0.20303140377E-01 -0.35725753902E-02  0.50000500000E+01  0.50000000000E+01 0.  1.
         50    1    1    2    0    0 -0.86615065608E-02  0.20303140377E-01  0.35725753902E-02  0.50000500000E+01  0.50000000000E+01 0. -1.
</event>
<event>
 4    1  0.4967105E-021  0.5000050E+01  0.7818608E-02  0.2136455E+00
        -11   -1    0    0    0    0  0.00000000000E+00  0.00000000000E+00  0.50000499739E+01  0.50000500000E+01  0.51100000000E-03 0. -1.
         11   -1    0    0    0    0 -0.00000000000E+00 -0.00000000000E+00 -0.50000499739E+01  0.50000500000E+01  0.51100000000E-03 0.  1.
         50    1    1    2    0    0  0.84490211240E-02 -0.57854312194E-02 -0.19878262692E-01  0.50000500000E+01  0.50000000000E+01 0.  1.
         50    1    1    2    0    0 -0.84490211240E-02  0.57854312194E-02  0.19878262692E-01  0.50000500000E+01  0.50000000000E+01 0.  0.
</event>
<event>
 4    1  0.4967105E-021  0.5000050E+01  0.7818608E-02  0.2136455E+00
        -11   -1    0    0    0    0  0.00000000000E+00  0.00000000000E+00  0.50000499739E+01  0.50000500000E+01  0.51100000000E-03 0.  1.
         11   -1    0    0    0    0 -0.00000000000E+00 -0.00000000000E+00 -0.50000499739E+01  0.50000500000E+01  0.51100000000E-03 0. -1.
         50    1    1    2    0    0  0.30916076752E-02  0.76335385348E-02 -0.20788784270E-01  0.50000500000E+01  0.50000000000E+01 0. -1.
         50    1    1    2    0    0 -0.30916076752E-02 -0.76335385348E-02  0.20788784270E-01  0.50000500000E+01  0.50000000000E+01 0.  0.
</event>
<event>
 4    1  0.4967105E-021  0.5000050E+01  0.7818608E-02  0.2136455E+00
        -11   -1    0    0    0    0  0.00000000000E+00  0.00000000000E+00  0.50000499739E+01  0.50000500000E+01  0.51100000000E-03 0. -1.
         11   -1    0    0    0    0 -0.00000000000E+00 -0.00000000000E+00 -0.50000499739E+01  0.50000500000E+01  0.51100000000E-03 0.  1.
         50    1    1    2    0    0  0.95261498240E-02  0.13792032024E-01  0.14799825072E-01  0.50000500000E+01  0.50000000000E+01 0.  0.
         50    1    1    2    0    0 -0.95261498240E-02 -0.13792032024E-01 -0.14799825072E-01  0.50000500000E+01  0.50000000000E+01 0.  1.
</event>
<event>
 4    1  0.4967105E-021  0.5000050E+01  0.7818608E-02  0.2136455E+00
        -11   -1    0    0    0    0  0.00000000000E+00  0.00000000000E+00  0.50000499739E+01  0.50000500000E+01  0.51100000000E-03 0.  1.
         11   -1    0    0    0    0 -0.00000000000E+00 -0.00000000000E+00 -0.50000499739E+01  0.50000500000E+01  0.51100000000E-03 0. -1.
         50    1    1    2    0    0 -0.84292640618E-02 -0.19366022753E-02 -0.20620368062E-01  0.50000500000E+01  0.50000000000E+01 0. -1.
         50    1    1    2    0    0  0.84292640618E-02  0.19366022753E-02  0.20620368062E-01  0.50000500000E+01  0.50000000000E+01 0.  1.
</event>
<event>
 4    1  0.4967105E-021  0.5000050E+01  0.7818608E-02  0.2136455E+00
        -11   -1    0    0    0    0  0.00000000000E+00  0.00000000000E+00  0.50000499739E+01  0.50000500000E+01  0.51100000000E-03 0. -1.
         11   -1    0    0    0    0 -0.00000000000E+00 -0.00000000000E+00 -0.50000499739E+01  0.50000500000E+01  0.51100000000E-03 0.  1.
         50    1    1    2    0    0 -0.14611324361E-01  0.19181272230E-02 -0.16817624337E-01  0.50000500000E+01  0.50000000000E+01 0.  1.
         50    1    1    2    0    0  0.14611324361E-01 -0.19181272230E-02  0.16817624337E-01  0.50000500000E+01  0.50000000000E+01 0. -1.
</event>
<event>
 4    1  0.4967105E-021  0.5000050E+01  0.7818608E-02  0.2136455E+00
        -11   -1    0    0    0    0  0.00000000000E+00  0.00000000000E+00  0.50000499739E+01  0.50000500000E+01  0.51100000000E-03 0.  1.
         11   -1    0    0    0    0 -0.00000000000E+00 -0.00000000000E+00 -0.50000499739E+01  0.50000500000E+01  0.51100000000E-03 0. -1.
         50    1    1    2    0    0 -0.38109101252E-02 -0.15800558892E-01 -0.15356490573E-01  0.50000500000E+01  0.50000000000E+01 0.  0.
         50    1    1    2    0    0  0.38109101252E-02  0.15800558892E-01  0.15356490573E-01  0.50000500000E+01  0.50000000000E+01 0.  0.
</event>
<event>
 4    1  0.4967105E-021  0.5000050E+01  0.7818608E-02  0.2136455E+00
        -11   -1    0    0    0    0  0.00000000000E+00  0.00000000000E+00  0.50000499739E+01  0.50000500000E+01  0.51100000000E-03 0.  1.
         11   -1    0    0    0    0 -0.00000000000E+00 -0.00000000000E+00 -0.50000499739E+01  0.50000500000E+01  0.51100000000E-03 0. -1.
         50    1    1    2    0    0  0.86551716166E-02  0.15782623157E-01  0.13266473178E-01  0.50000500000E+01  0.50000000000E+01 0.  1.
         50    1    1    2    0    0 -0.86551716166E-02 -0.15782623157E-01 -0.13266473178E-01  0.50000500000E+01  0.50000000000E+01 0. -1.
</event>
<event>
 4    1  0.4967105E-021  0.5000050E+01  0.7818608E-02  0.2136455E+00
        -11   -1    0    0    0    0  0.00000000000E+00  0.00000000000E+00  0.50000499739E+01  0.50000500000E+01  0.51100000000E-03 0.  1.
         11   -1    0    0    0    0 -0.00000000000E+00 -0.00000000000E+00 -0.50000499739E+01  0.50000500000E+01  0.51100000000E-03 0. -1.
         50    1    1    2    0    0 -0.62849647019E-03 -0.42719067750E-02 -0.21939879323E-01  0.50000500000E+01  0.50000000000E+01 0.  0.
         50    1    1    2    0    0  0.62849647019E-03  0.42719067750E-02  0.21939879323E-01  0.50000500000E+01  0.50000000000E+01 0.  1.
</event>
<event>
 4    1  0.4967105E-021  0.5000050E+01  0.7818608E-02  0.2136455E+00
        -11   -1    0    0    0    0  0.00000000000E+00  0.00000000000E+00  0.50000499739E+01  0.50000500000E+01  0.51100000000E-03 0.  1.
         11   -1    0    0    0    0 -0.00000000000E+00 -0.00000000000E+00 -0.50000499739E+01  0.50000500000E+01  0.51100000000E-03 0. -1.
         50    1    1    2    0    0  0.16202469220E-01  0.10239871737E-01  0.11516402129E-01  0.50000500000E+01  0.50000000000E+01 0.  0.
         50    1    1    2    0    0 -0.16202469220E-01 -0.10239871737E-01 -0.11516402129E-01  0.50000500000E+01  0.50000000000E+01 0.  1.
</event>
<event>
 4    1  0.4967105E-021  0.5000050E+01  0.7818608E-02  0.2136455E+00
        -11   -1    0    0    0    0  0.00000000000E+00  0.00000000000E+00  0.50000499739E+01  0.50000500000E+01  0.51100000000E-03 0. -1.
         11   -1    0    0    0    0 -0.00000000000E+00 -0.00000000000E+00 -0.50000499739E+01  0.50000500000E+01  0.51100000000E-03 0.  1.
         50    1    1    2    0    0  0.90011028910E-02 -0.13840187062E-01  0.15080844434E-01  0.50000500000E+01  0.50000000000E+01 0. -1.
         50    1    1    2    0    0 -0.90011028910E-02  0.13840187062E-01 -0.15080844434E-01  0.50000500000E+01  0.50000000000E+01 0.  1.
</event>
<event>
 4    1  0.4967105E-021  0.5000050E+01  0.7818608E-02  0.2136455E+00
        -11   -1    0    0    0    0  0.00000000000E+00  0.00000000000E+00  0.50000499739E+01  0.50000500000E+01  0.51100000000E-03 0. -1.
         11   -1    0    0    0    0 -0.00000000000E+00 -0.00000000000E+00 -0.50000499739E+01  0.50000500000E+01  0.51100000000E-03 0.  1.
         50    1    1    2    0    0  0.64134017274E-02  0.20851479745E-01 -0.49078071190E-02  0.50000500000E+01  0.50000000000E+01 0.  0.
         50    1    1    2    0    0 -0.64134017274E-02 -0.20851479745E-01  0.49078071190E-02  0.50000500000E+01  0.50000000000E+01 0.  1.
</event>
<event>
 4    1  0.4967105E-021  0.5000050E+01  0.7818608E-02  0.2136455E+00
        -11   -1    0    0    0    0  0.00000000000E+00  0.00000000000E+00  0.50000499739E+01  0.50000500000E+01  0.51100000000E-03 0.  1.
         11   -1    0    0    0    0 -0.00000000000E+00 -0.00000000000E+00 -0.50000499739E+01  0.50000500000E+01  0.51100000000E-03 0. -1.
         50    1    1    2    0    0  0.21900820328E-01 -0.19385179080E-02  0.40741523403E-02  0.50000500000E+01  0.50000000000E+01 0.  1.
         50    1    1    2    0    0 -0.21900820328E-01  0.19385179080E-02 -0.40741523403E-02  0.50000500000E+01  0.50000000000E+01 0. -1.
</event>
<event>
 4    1  0.4967105E-021  0.5000050E+01  0.7818608E-02  0.2136455E+00
        -11   -1    0    0    0    0  0.00000000000E+00  0.00000000000E+00  0.50000499739E+01  0.50000500000E+01  0.51100000000E-03 0. -1.
         11   -1    0    0    0    0 -0.00000000000E+00 -0.00000000000E+00 -0.50000499739E+01  0.50000500000E+01  0.51100000000E-03 0.  1.
         50    1    1    2    0    0  0.13360782585E-01  0.76606360391E-02  0.16211312229E-01  0.50000500000E+01  0.50000000000E+01 0.  0.
         50    1    1    2    0    0 -0.13360782585E-01 -0.76606360391E-02 -0.16211312229E-01  0.50000500000E+01  0.50000000000E+01 0.  1.
</event>
<event>
 4    1  0.4967105E-021  0.5000050E+01  0.7818608E-02  0.2136455E+00
        -11   -1    0    0    0    0  0.00000000000E+00  0.00000000000E+00  0.50000499739E+01  0.50000500000E+01  0.51100000000E-03 0. -1.
         11   -1    0    0    0    0 -0.00000000000E+00 -0.00000000000E+00 -0.50000499739E+01  0.50000500000E+01  0.51100000000E-03 0.  1.
         50    1    1    2    0    0  0.19381527619E-01  0.32975439347E-02 -0.10652938146E-01  0.50000500000E+01  0.50000000000E+01 0.  0.
         50    1    1    2    0    0 -0.19381527619E-01 -0.32975439347E-02  0.10652938146E-01  0.50000500000E+01  0.50000000000E+01 0.  1.
</event>
<event>
 4    1  0.4967105E-021  0.5000050E+01  0.7818608E-02  0.2136455E+00
        -11   -1    0    0    0    0  0.00000000000E+00  0.00000000000E+00  0.50000499739E+01  0.50000500000E+01  0.51100000000E-03 0. -1.
         11   -1    0    0    0    0 -0.00000000000E+00 -0.00000000000E+00 -0.50000499739E+01  0.50000500000E+01  0.51100000000E-03 0.  1.
         50    1    1    2    0    0  0.36338991877E-02  0.22000607430E-01  0.16644967458E-02  0.50000500000E+01  0.50000000000E+01 0.  1.
         50    1    1    2    0    0 -0.36338991877E-02 -0.22000607430E-01 -0.16644967458E-02  0.50000500000E+01  0.50000000000E+01 0. -1.
</event>
<event>
 4    1  0.4967105E-021  0.5000050E+01  0.7818608E-02  0.2136455E+00
        -11   -1    0    0    0    0  0.00000000000E+00  0.00000000000E+00  0.50000499739E+01  0.50000500000E+01  0.51100000000E-03 0. -1.
         11   -1    0    0    0    0 -0.00000000000E+00 -0.00000000000E+00 -0.50000499739E+01  0.50000500000E+01  0.51100000000E-03 0.  1.
         50    1    1    2    0    0 -0.89556912060E-02 -0.19955288286E-01  0.46459191192E-02  0.50000500000E+01  0.50000000000E+01 0.  1.
         50    1    1    2    0    0  0.89556912060E-02  0.19955288286E-01 -0.46459191192E-02  0.50000500000E+01  0.50000000000E+01 0. -1.
</event>
<event>
 4    1  0.4967105E-021  0.5000050E+01  0.7818608E-02  0.2136455E+00
        -11   -1    0    0    0    0  0.00000000000E+00  0.00000000000E+00  0.50000499739E+01  0.50000500000E+01  0.51100000000E-03 0.  1.
         11   -1    0    0    0    0 -0.00000000000E+00 -0.00000000000E+00 -0.50000499739E+01  0.50000500000E+01  0.51100000000E-03 0. -1.
         50    1    1    2    0    0  0.15374340512E-01 -0.15436808587E-01 -0.50335965733E-02  0.50000500000E+01  0.50000000000E+01 0.  1.
         50    1    1    2    0    0 -0.15374340512E-01  0.15436808587E-01  0.50335965733E-02  0.50000500000E+01  0.50000000000E+01 0.  0.
</event>
<event>
 4    1  0.4967105E-021  0.5000050E+01  0.7818608E-02  0.2136455E+00
        -11   -1    0    0    0    0  0.00000000000E+00  0.00000000000E+00  0.50000499739E+01  0.50000500000E+01  0.51100000000E-03 0.  1.
         11   -1    0    0    0    0 -0.00000000000E+00 -0.00000000000E+00 -0.50000499739E+01  0.50000500000E+01  0.51100000000E-03 0. -1.
         50    1    1    2    0    0 -0.19349062489E-02  0.48756982477E-02  0.21736747788E-01  0.50000500000E+01  0.50000000000E+01 0.  1.
         50    1    1    2    0    0  0.19349062489E-02 -0.48756982477E-02 -0.21736747788E-01  0.50000500000E+01  0.50000000000E+01 0.  0.
</event>
<event>
 4    1  0.4967105E-021  0.5000050E+01  0.7818608E-02  0.2136455E+00
        -11   -1    0    0    0    0  0.00000000000E+00  0.00000000000E+00  0.50000499739E+01  0.50000500000E+01  0.51100000000E-03 0.  1.
         11   -1    0    0    0    0 -0.00000000000E+00 -0.00000000000E+00 -0.50000499739E+01  0.50000500000E+01  0.51100000000E-03 0. -1.
         50    1    1    2    0    0  0.19691136166E-01 -0.58930545159E-02 -0.88053145868E-02  0.50000500000E+01  0.50000000000E+01 0.  1.
         50    1    1    2    0    0 -0.19691136166E-01  0.58930545159E-02  0.88053145868E-02  0.50000500000E+01  0.50000000000E+01 0.  0.
</event>
<event>
 4    1  0.4967105E-021  0.5000050E+01  0.7818608E-02  0.2136455E+00
        -11   -1    0    0    0    0  0.00000000000E+00  0.00000000000E+00  0.50000499739E+01  0.50000500000E+01  0.51100000000E-03 0.  1.
         11   -1    0    0    0    0 -0.00000000000E+00 -0.00000000000E+00 -0.50000499739E+01  0.50000500000E+01  0.51100000000E-03 0. -1.
         50    1    1    2    0    0  0.57239413875E-02  0.21210246328E-01  0.41670667980E-02  0.50000500000E+01  0.50000000000E+01 0.  0.
         50    1    1    2    0    0 -0.57239413875E-02 -0.21210246328E-01 -0.41670667980E-02  0.50000500000E+01  0.50000000000E+01 0.  1.
</event>
<event>
 4    1  0.4967105E-021  0.5000050E+01  0.7818608E-02  0.2136455E+00
        -11   -1    0    0    0    0  0.00000000000E+00  0.00000000000E+00  0.50000499739E+01  0.50000500000E+01  0.51100000000E-03 0. -1.
         11   -1    0    0    0    0 -0.00000000000E+00 -0.00000000000E+00 -0.50000499739E+01  0.50000500000E+01  0.51100000000E-03 0.  1.
         50    1    1    2    0    0  0.72283838855E-02  0.10070691882E-01  0.18610054579E-01  0.50000500000E+01  0.50000000000E+01 0.  0.
         50    1    1    2    0    0 -0.72283838855E-02 -0.10070691882E-01 -0.18610054579E-01  0.50000500000E+01  0.50000000000E+01 0.  1.
</event>
<event>
 4    1  0.4967105E-021  0.5000050E+01  0.7818608E-02  0.2136455E+00
        -11   -1    0    0    0    0  0.00000000000E+00  0.00000000000E+00  0.50000499739E+01  0.50000500000E+01  0.51100000000E-03 0. -1.
         11   -1    0    0    0    0 -0.00000000000E+00 -0.00000000000E+00 -0.50000499739E+01  0.50000500000E+01  0.51100000000E-03 0.  1.
         50    1    1    2    0    0  0.12098097413E-01  0.17923894936E-01 -0.56896862207E-02  0.50000500000E+01  0.50000000000E+01 0.  0.
         50    1    1    2    0    0 -0.12098097413E-01 -0.17923894936E-01  0.56896862207E-02  0.50000500000E+01  0.50000000000E+01 0. -1.
</event>
<event>
 4    1  0.4967105E-021  0.5000050E+01  0.7818608E-02  0.2136455E+00
        -11   -1    0    0    0    0  0.00000000000E+00  0.00000000000E+00  0.50000499739E+01  0.50000500000E+01  0.51100000000E-03 0. -1.
         11   -1    0    0    0    0 -0.00000000000E+00 -0.00000000000E+00 -0.50000499739E+01  0.50000500000E+01  0.51100000000E-03 0.  1.
         50    1    1    2    0    0 -0.92448445094E-02  0.19949219288E-01  0.40698894102E-02  0.50000500000E+01  0.50000000000E+01 0.  0.
         50    1    1    2    0    0  0.92448445094E-02 -0.19949219288E-01 -0.40698894102E-02  0.50000500000E+01  0.50000000000E+01 0.  0.
</event>
<event>
 4    1  0.4967105E-021  0.5000050E+01  0.7818608E-02  0.2136455E+00
        -11   -1    0    0    0    0  0.00000000000E+00  0.00000000000E+00  0.50000499739E+01  0.50000500000E+01  0.51100000000E-03 0.  1.
         11   -1    0    0    0    0 -0.00000000000E+00 -0.00000000000E+00 -0.50000499739E+01  0.50000500000E+01  0.51100000000E-03 0. -1.
         50    1    1    2    0    0  0.19048901072E-01 -0.68571348330E-02  0.94932381115E-02  0.50000500000E+01  0.50000000000E+01 0.  0.
         50    1    1    2    0    0 -0.19048901072E-01  0.68571348330E-02 -0.94932381115E-02  0.50000500000E+01  0.50000000000E+01 0.  0.
</event>
<event>
 4    1  0.4967105E-021  0.5000050E+01  0.7818608E-02  0.2136455E+00
        -11   -1    0    0    0    0  0.00000000000E+00  0.00000000000E+00  0.50000499739E+01  0.50000500000E+01  0.51100000000E-03 0. -1.
         11   -1    0    0    0    0 -0.00000000000E+00 -0.00000000000E+00 -0.50000499739E+01  0.50000500000E+01  0.51100000000E-03 0.  1.
         50    1    1    2    0    0 -0.18759156480E-01 -0.76146290921E-02 -0.94928379294E-02  0.50000500000E+01  0.50000000000E+01 0. -1.
         50    1    1    2    0    0  0.18759156480E-01  0.76146290921E-02  0.94928379294E-02  0.50000500000E+01  0.50000000000E+01 0.  1.
</event>
<event>
 4    1  0.4967105E-021  0.5000050E+01  0.7818608E-02  0.2136455E+00
        -11   -1    0    0    0    0  0.00000000000E+00  0.00000000000E+00  0.50000499739E+01  0.50000500000E+01  0.51100000000E-03 0. -1.
         11   -1    0    0    0    0 -0.00000000000E+00 -0.00000000000E+00 -0.50000499739E+01  0.50000500000E+01  0.51100000000E-03 0.  1.
         50    1    1    2    0    0 -0.95543837509E-02  0.39447157432E-02  0.19828148397E-01  0.50000500000E+01  0.50000000000E+01 0.  0.
         50    1    1    2    0    0  0.95543837509E-02 -0.39447157432E-02 -0.19828148397E-01  0.50000500000E+01  0.50000000000E+01 0.  0.
</event>
<event>
 4    1  0.4967105E-021  0.5000050E+01  0.7818608E-02  0.2136455E+00
        -11   -1    0    0    0    0  0.00000000000E+00  0.00000000000E+00  0.50000499739E+01  0.50000500000E+01  0.51100000000E-03 0. -1.
         11   -1    0    0    0    0 -0.00000000000E+00 -0.00000000000E+00 -0.50000499739E+01  0.50000500000E+01  0.51100000000E-03 0.  1.
         50    1    1    2    0    0  0.82790386878E-02 -0.15348905184E-01  0.13995396674E-01  0.50000500000E+01  0.50000000000E+01 0.  1.
         50    1    1    2    0    0 -0.82790386878E-02  0.15348905184E-01 -0.13995396674E-01  0.50000500000E+01  0.50000000000E+01 0. -1.
</event>
<event>
 4    1  0.4967105E-021  0.5000050E+01  0.7818608E-02  0.2136455E+00
        -11   -1    0    0    0    0  0.00000000000E+00  0.00000000000E+00  0.50000499739E+01  0.50000500000E+01  0.51100000000E-03 0. -1.
         11   -1    0    0    0    0 -0.00000000000E+00 -0.00000000000E+00 -0.50000499739E+01  0.50000500000E+01  0.51100000000E-03 0.  1.
         50    1    1    2    0    0 -0.16392137213E-01  0.92553437455E-02  0.12068096360E-01  0.50000500000E+01  0.50000000000E+01 0. -1.
         50    1    1    2    0    0  0.16392137213E-01 -0.92553437455E-02 -0.12068096360E-01  0.50000500000E+01  0.50000000000E+01 0.  1.
</event>
<event>
 4    1  0.4967105E-021  0.5000050E+01  0.7818608E-02  0.2136455E+00
        -11   -1    0    0    0    0  0.00000000000E+00  0.00000000000E+00  0.50000499739E+01  0.50000500000E+01  0.51100000000E-03 0.  1.
         11   -1    0    0    0    0 -0.00000000000E+00 -0.00000000000E+00 -0.50000499739E+01  0.50000500000E+01  0.51100000000E-03 0. -1.
         50    1    1    2    0    0 -0.18913542762E-01  0.25105193247E-02 -0.11660947341E-01  0.50000500000E+01  0.50000000000E+01 0.  0.
         50    1    1    2    0    0  0.18913542762E-01 -0.25105193247E-02  0.11660947341E-01  0.50000500000E+01  0.50000000000E+01 0. -1.
</event>
<event>
 4    1  0.4967105E-021  0.5000050E+01  0.7818608E-02  0.2136455E+00
        -11   -1    0    0    0    0  0.00000000000E+00  0.00000000000E+00  0.50000499739E+01  0.50000500000E+01  0.51100000000E-03 0. -1.
         11   -1    0    0    0    0 -0.00000000000E+00 -0.00000000000E+00 -0.50000499739E+01  0.50000500000E+01  0.51100000000E-03 0.  1.
         50    1    1    2    0    0 -0.21946750883E-01 -0.40221976965E-02 -0.14712414326E-02  0.50000500000E+01  0.50000000000E+01 0. -1.
         50    1    1    2    0    0  0.21946750883E-01  0.40221976965E-02  0.14712414326E-02  0.50000500000E+01  0.50000000000E+01 0.  0.
</event>
<event>
 4    1  0.4967105E-021  0.5000050E+01  0.7818608E-02  0.2136455E+00
        -11   -1    0    0    0    0  0.00000000000E+00  0.00000000000E+00  0.50000499739E+01  0.50000500000E+01  0.51100000000E-03 0.  1.
         11   -1    0    0    0    0 -0.00000000000E+00 -0.00000000000E+00 -0.50000499739E+01  0.50000500000E+01  0.51100000000E-03 0. -1.
         50    1    1    2    0    0  0.21077794439E-01 -0.53077113734E-02  0.52495029834E-02  0.50000500000E+01  0.50000000000E+01 0.  1.
         50    1    1    2    0    0 -0.21077794439E-01  0.53077113734E-02 -0.52495029834E-02  0.50000500000E+01  0.50000000000E+01 0. -1.
</event>
<event>
 4    1  0.4967105E-021  0.5000050E+01  0.7818608E-02  0.2136455E+00
        -11   -1    0    0    0    0  0.00000000000E+00  0.00000000000E+00  0.50000499739E+01  0.50000500000E+01  0.51100000000E-03 0.  1.
         11   -1    0    0    0    0 -0.00000000000E+00 -0.00000000000E+00 -0.50000499739E+01  0.50000500000E+01  0.51100000000E-03 0. -1.
         50    1    1    2    0    0 -0.18736091149E-01 -0.69721397308E-03  0.12185043338E-01  0.50000500000E+01  0.50000000000E+01 0.  1.
         50    1    1    2    0    0  0.18736091149E-01  0.69721397308E-03 -0.12185043338E-01  0.50000500000E+01  0.50000000000E+01 0.  1.
</event>
<event>
 4    1  0.4967105E-021  0.5000050E+01  0.7818608E-02  0.2136455E+00
        -11   -1    0    0    0    0  0.00000000000E+00  0.00000000000E+00  0.50000499739E+01  0.50000500000E+01  0.51100000000E-03 0.  1.
         11   -1    0    0    0    0 -0.00000000000E+00 -0.00000000000E+00 -0.50000499739E+01  0.50000500000E+01  0.51100000000E-03 0. -1.
         50    1    1    2    0    0  0.79974376626E-02  0.20880806957E-01 -0.18812671536E-03  0.50000500000E+01  0.50000000000E+01 0. -1.
         50    1    1    2    0    0 -0.79974376626E-02 -0.20880806957E-01  0.18812671536E-03  0.50000500000E+01  0.50000000000E+01 0.  0.
</event>
<event>
 4    1  0.4967105E-021  0.5000050E+01  0.7818608E-02  0.2136455E+00
        -11   -1    0    0    0    0  0.00000000000E+00  0.00000000000E+00  0.50000499739E+01  0.50000500000E+01  0.51100000000E-03 0. -1.
         11   -1    0    0    0    0 -0.00000000000E+00 -0.00000000000E+00 -0.50000499739E+01  0.50000500000E+01  0.51100000000E-03 0.  1.
         50    1    1    2    0    0  0.63113289485E-02  0.16234873327E-01 -0.14021359241E-01  0.50000500000E+01  0.50000000000E+01 0.  0.
         50    1    1    2    0    0 -0.63113289485E-02 -0.16234873327E-01  0.14021359241E-01  0.50000500000E+01  0.50000000000E+01 0.  1.
</event>
<event>
 4    1  0.4967105E-021  0.5000050E+01  0.7818608E-02  0.2136455E+00
        -11   -1    0    0    0    0  0.00000000000E+00  0.00000000000E+00  0.50000499739E+01  0.50000500000E+01  0.51100000000E-03 0. -1.
         11   -1    0    0    0    0 -0.00000000000E+00 -0.00000000000E+00 -0.50000499739E+01  0.50000500000E+01  0.51100000000E-03 0.  1.
         50    1    1    2    0    0 -0.18313214135E-01 -0.10476675830E-01  0.74072904347E-02  0.50000500000E+01  0.50000000000E+01 0.  0.
         50    1    1    2    0    0  0.18313214135E-01  0.10476675830E-01 -0.74072904347E-02  0.50000500000E+01  0.50000000000E+01 0.  0.
</event>
<event>
 4    1  0.4967105E-021  0.5000050E+01  0.7818608E-02  0.2136455E+00
        -11   -1    0    0    0    0  0.00000000000E+00  0.00000000000E+00  0.50000499739E+01  0.50000500000E+01  0.51100000000E-03 0.  1.
         11   -1    0    0    0    0 -0.00000000000E+00 -0.00000000000E+00 -0.50000499739E+01  0.50000500000E+01  0.51100000000E-03 0. -1.
         50    1    1    2    0    0  0.20383868002E-01  0.11542479172E-02 -0.91196566277E-02  0.50000500000E+01  0.50000000000E+01 0.  1.
         50    1    1    2    0    0 -0.20383868002E-01 -0.11542479172E-02  0.91196566277E-02  0.50000500000E+01  0.50000000000E+01 0.  0.
</event>
<event>
 4    1  0.4967105E-021  0.5000050E+01  0.7818608E-02  0.2136455E+00
        -11   -1    0    0    0    0  0.00000000000E+00  0.00000000000E+00  0.50000499739E+01  0.50000500000E+01  0.51100000000E-03 0.  1.
         11   -1    0    0    0    0 -0.00000000000E+00 -0.00000000000E+00 -0.50000499739E+01  0.50000500000E+01  0.51100000000E-03 0. -1.
         50    1    1    2    0    0  0.82897693461E-02  0.47772345309E-02 -0.20210399660E-01  0.50000500000E+01  0.50000000000E+01 0. -1.
         50    1    1    2    0    0 -0.82897693461E-02 -0.47772345309E-02  0.20210399660E-01  0.50000500000E+01  0.50000000000E+01 0.  1.
</event>
<event>
 4    1  0.4967105E-021  0.5000050E+01  0.7818608E-02  0.2136455E+00
        -11   -1    0    0    0    0  0.00000000000E+00  0.00000000000E+00  0.50000499739E+01  0.50000500000E+01  0.51100000000E-03 0. -1.
         11   -1    0    0    0    0 -0.00000000000E+00 -0.00000000000E+00 -0.50000499739E+01  0.50000500000E+01  0.51100000000E-03 0.  1.
         50    1    1    2    0    0 -0.15578441570E-01  0.14242201861E-01  0.73806737104E-02  0.50000500000E+01  0.50000000000E+01 0. -1.
         50    1    1    2    0    0  0.15578441570E-01 -0.14242201861E-01 -0.73806737104E-02  0.50000500000E+01  0.50000000000E+01 0.  1.
</event>
<event>
 4    1  0.4967105E-021  0.5000050E+01  0.7818608E-02  0.2136455E+00
        -11   -1    0    0    0    0  0.00000000000E+00  0.00000000000E+00  0.50000499739E+01  0.50000500000E+01  0.51100000000E-03 0.  1.
         11   -1    0    0    0    0 -0.00000000000E+00 -0.00000000000E+00 -0.50000499739E+01  0.50000500000E+01  0.51100000000E-03 0. -1.
         50    1    1    2    0    0 -0.12687710740E-01  0.61809389181E-02 -0.17344177417E-01  0.50000500000E+01  0.50000000000E+01 0.  0.
         50    1    1    2    0    0  0.12687710740E-01 -0.61809389181E-02  0.17344177417E-01  0.50000500000E+01  0.50000000000E+01 0.  1.
</event>
<event>
 4    1  0.4967105E-021  0.5000050E+01  0.7818608E-02  0.2136455E+00
        -11   -1    0    0    0    0  0.00000000000E+00  0.00000000000E+00  0.50000499739E+01  0.50000500000E+01  0.51100000000E-03 0.  1.
         11   -1    0    0    0    0 -0.00000000000E+00 -0.00000000000E+00 -0.50000499739E+01  0.50000500000E+01  0.51100000000E-03 0. -1.
         50    1    1    2    0    0 -0.13564170387E-01  0.32532610502E-02 -0.17476615068E-01  0.50000500000E+01  0.50000000000E+01 0.  0.
         50    1    1    2    0    0  0.13564170387E-01 -0.32532610502E-02  0.17476615068E-01  0.50000500000E+01  0.50000000000E+01 0.  0.
</event>
<event>
 4    1  0.4967105E-021  0.5000050E+01  0.7818608E-02  0.2136455E+00
        -11   -1    0    0    0    0  0.00000000000E+00  0.00000000000E+00  0.50000499739E+01  0.50000500000E+01  0.51100000000E-03 0.  1.
         11   -1    0    0    0    0 -0.00000000000E+00 -0.00000000000E+00 -0.50000499739E+01  0.50000500000E+01  0.51100000000E-03 0. -1.
         50    1    1    2    0    0  0.81630016660E-02 -0.20744987117E-01  0.17359185828E-02  0.50000500000E+01  0.50000000000E+01 0.  0.
         50    1    1    2    0    0 -0.81630016660E-02  0.20744987117E-01 -0.17359185828E-02  0.50000500000E+01  0.50000000000E+01 0.  1.
</event>
<event>
 4    1  0.4967105E-021  0.5000050E+01  0.7818608E-02  0.2136455E+00
        -11   -1    0    0    0    0  0.00000000000E+00  0.00000000000E+00  0.50000499739E+01  0.50000500000E+01  0.51100000000E-03 0. -1.
         11   -1    0    0    0    0 -0.00000000000E+00 -0.00000000000E+00 -0.50000499739E+01  0.50000500000E+01  0.51100000000E-03 0.  1.
         50    1    1    2    0    0  0.19622759970E-01  0.35988757861E-02 -0.10099400192E-01  0.50000500000E+01  0.50000000000E+01 0. -1.
         50    1    1    2    0    0 -0.19622759970E-01 -0.35988757861E-02  0.10099400192E-01  0.50000500000E+01  0.50000000000E+01 0.  1.
</event>
<event>
 4    1  0.4967105E-021  0.5000050E+01  0.7818608E-02  0.2136455E+00
        -11   -1    0    0    0    0  0.00000000000E+00  0.00000000000E+00  0.50000499739E+01  0.50000500000E+01  0.51100000000E-03 0.  1.
         11   -1    0    0    0    0 -0.00000000000E+00 -0.00000000000E+00 -0.50000499739E+01  0.50000500000E+01  0.51100000000E-03 0. -1.
         50    1    1    2    0    0 -0.18158950965E-01 -0.12109975185E-01  0.48583434306E-02  0.50000500000E+01  0.50000000000E+01 0. -1.
         50    1    1    2    0    0  0.18158950965E-01  0.12109975185E-01 -0.48583434306E-02  0.50000500000E+01  0.50000000000E+01 0.  0.
</event>
<event>
 4    1  0.4967105E-021  0.5000050E+01  0.7818608E-02  0.2136455E+00
        -11   -1    0    0    0    0  0.00000000000E+00  0.00000000000E+00  0.50000499739E+01  0.50000500000E+01  0.51100000000E-03 0.  1.
         11   -1    0    0    0    0 -0.00000000000E+00 -0.00000000000E+00 -0.50000499739E+01  0.50000500000E+01  0.51100000000E-03 0. -1.
         50    1    1    2    0    0  0.20307168678E-01  0.38250406206E-02  0.85434457055E-02  0.50000500000E+01  0.50000000000E+01 0.  0.
         50    1    1    2    0    0 -0.20307168678E-01 -0.38250406206E-02 -0.85434457055E-02  0.50000500000E+01  0.50000000000E+01 0.  0.
</event>
<event>
 4    1  0.4967105E-021  0.5000050E+01  0.7818608E-02  0.2136455E+00
        -11   -1    0    0    0    0  0.00000000000E+00  0.00000000000E+00  0.50000499739E+01  0.50000500000E+01  0.51100000000E-03 0. -1.
         11   -1    0    0    0    0 -0.00000000000E+00 -0.00000000000E+00 -0.50000499739E+01  0.50000500000E+01  0.51100000000E-03 0.  1.
         50    1    1    2    0    0 -0.20965760007E-01  0.76915350181E-02  0.11312366589E-02  0.50000500000E+01  0.50000000000E+01 0.  1.
         50    1    1    2    0    0  0.20965760007E-01 -0.76915350181E-02 -0.11312366589E-02  0.50000500000E+01  0.50000000000E+01 0. -1.
</event>
<event>
 4    1  0.4967105E-021  0.5000050E+01  0.7818608E-02  0.2136455E+00
        -11   -1    0    0    0    0  0.00000000000E+00  0.00000000000E+00  0.50000499739E+01  0.50000500000E+01  0.51100000000E-03 0.  1.
         11   -1    0    0    0    0 -0.00000000000E+00 -0.00000000000E+00 -0.50000499739E+01  0.50000500000E+01  0.51100000000E-03 0. -1.
         50    1    1    2    0    0 -0.34262620365E-02 -0.11250762860E-01 -0.19017980007E-01  0.50000500000E+01  0.50000000000E+01 0. -1.
         50    1    1    2    0    0  0.34262620365E-02  0.11250762860E-01  0.19017980007E-01  0.50000500000E+01  0.50000000000E+01 0.  1.
</event>
<event>
 4    1  0.4967105E-021  0.5000050E+01  0.7818608E-02  0.2136455E+00
        -11   -1    0    0    0    0  0.00000000000E+00  0.00000000000E+00  0.50000499739E+01  0.50000500000E+01  0.51100000000E-03 0. -1.
         11   -1    0    0    0    0 -0.00000000000E+00 -0.00000000000E+00 -0.50000499739E+01  0.50000500000E+01  0.51100000000E-03 0.  1.
         50    1    1    2    0    0  0.25057636344E-02  0.53007136137E-02  0.21578370740E-01  0.50000500000E+01  0.50000000000E+01 0.  0.
         50    1    1    2    0    0 -0.25057636344E-02 -0.53007136137E-02 -0.21578370740E-01  0.50000500000E+01  0.50000000000E+01 0.  0.
</event>
<event>
 4    1  0.4967105E-021  0.5000050E+01  0.7818608E-02  0.2136455E+00
        -11   -1    0    0    0    0  0.00000000000E+00  0.00000000000E+00  0.50000499739E+01  0.50000500000E+01  0.51100000000E-03 0. -1.
         11   -1    0    0    0    0 -0.00000000000E+00 -0.00000000000E+00 -0.50000499739E+01  0.50000500000E+01  0.51100000000E-03 0.  1.
         50    1    1    2    0    0 -0.15227651665E-01  0.13988878361E-01  0.85107230572E-02  0.50000500000E+01  0.50000000000E+01 0. -1.
         50    1    1    2    0    0  0.15227651665E-01 -0.13988878361E-01 -0.85107230572E-02  0.50000500000E+01  0.50000000000E+01 0.  1.
</event>
<event>
 4    1  0.4967105E-021  0.5000050E+01  0.7818608E-02  0.2136455E+00
        -11   -1    0    0    0    0  0.00000000000E+00  0.00000000000E+00  0.50000499739E+01  0.50000500000E+01  0.51100000000E-03 0. -1.
         11   -1    0    0    0    0 -0.00000000000E+00 -0.00000000000E+00 -0.50000499739E+01  0.50000500000E+01  0.51100000000E-03 0.  1.
         50    1    1    2    0    0  0.38093443346E-02 -0.22032199952E-01  0.27122136435E-03  0.50000500000E+01  0.50000000000E+01 0.  1.
         50    1    1    2    0    0 -0.38093443346E-02  0.22032199952E-01 -0.27122136435E-03  0.50000500000E+01  0.50000000000E+01 0. -1.
</event>
<event>
 4    1  0.4967105E-021  0.5000050E+01  0.7818608E-02  0.2136455E+00
        -11   -1    0    0    0    0  0.00000000000E+00  0.00000000000E+00  0.50000499739E+01  0.50000500000E+01  0.51100000000E-03 0.  1.
         11   -1    0    0    0    0 -0.00000000000E+00 -0.00000000000E+00 -0.50000499739E+01  0.50000500000E+01  0.51100000000E-03 0. -1.
         50    1    1    2    0    0 -0.40031903229E-02  0.15728343945E-01  0.15381682743E-01  0.50000500000E+01  0.50000000000E+01 0.  1.
         50    1    1    2    0    0  0.40031903229E-02 -0.15728343945E-01 -0.15381682743E-01  0.50000500000E+01  0.50000000000E+01 0. -1.
</event>
<event>
 4    1  0.4967105E-021  0.5000050E+01  0.7818608E-02  0.2136455E+00
        -11   -1    0    0    0    0  0.00000000000E+00  0.00000000000E+00  0.50000499739E+01  0.50000500000E+01  0.51100000000E-03 0.  1.
         11   -1    0    0    0    0 -0.00000000000E+00 -0.00000000000E+00 -0.50000499739E+01  0.50000500000E+01  0.51100000000E-03 0. -1.
         50    1    1    2    0    0 -0.17216127600E-01 -0.10157360480E-01 -0.10021750273E-01  0.50000500000E+01  0.50000000000E+01 0.  1.
         50    1    1    2    0    0  0.17216127600E-01  0.10157360480E-01  0.10021750273E-01  0.50000500000E+01  0.50000000000E+01 0. -1.
</event>
<event>
 4    1  0.4967105E-021  0.5000050E+01  0.7818608E-02  0.2136455E+00
        -11   -1    0    0    0    0  0.00000000000E+00  0.00000000000E+00  0.50000499739E+01  0.50000500000E+01  0.51100000000E-03 0.  1.
         11   -1    0    0    0    0 -0.00000000000E+00 -0.00000000000E+00 -0.50000499739E+01  0.50000500000E+01  0.51100000000E-03 0. -1.
         50    1    1    2    0    0 -0.12829118664E-01  0.43341654052E-02  0.17794134555E-01  0.50000500000E+01  0.50000000000E+01 0.  1.
         50    1    1    2    0    0  0.12829118664E-01 -0.43341654052E-02 -0.17794134555E-01  0.50000500000E+01  0.50000000000E+01 0. -1.
</event>
<event>
 4    1  0.4967105E-021  0.5000050E+01  0.7818608E-02  0.2136455E+00
        -11   -1    0    0    0    0  0.00000000000E+00  0.00000000000E+00  0.50000499739E+01  0.50000500000E+01  0.51100000000E-03 0.  1.
         11   -1    0    0    0    0 -0.00000000000E+00 -0.00000000000E+00 -0.50000499739E+01  0.50000500000E+01  0.51100000000E-03 0. -1.
         50    1    1    2    0    0 -0.38004570877E-02  0.19395514163E-01  0.10458157403E-01  0.50000500000E+01  0.50000000000E+01 0.  1.
         50    1    1    2    0    0  0.38004570877E-02 -0.19395514163E-01 -0.10458157403E-01  0.50000500000E+01  0.50000000000E+01 0.  0.
</event>
<event>
 4    1  0.4967105E-021  0.5000050E+01  0.7818608E-02  0.2136455E+00
        -11   -1    0    0    0    0  0.00000000000E+00  0.00000000000E+00  0.50000499739E+01  0.50000500000E+01  0.51100000000E-03 0.  1.
         11   -1    0    0    0    0 -0.00000000000E+00 -0.00000000000E+00 -0.50000499739E+01  0.50000500000E+01  0.51100000000E-03 0. -1.
         50    1    1    2    0    0 -0.14523321166E-01 -0.38844651627E-02 -0.16552539766E-01  0.50000500000E+01  0.50000000000E+01 0. -1.
         50    1    1    2    0    0  0.14523321166E-01  0.38844651627E-02  0.16552539766E-01  0.50000500000E+01  0.50000000000E+01 0.  1.
</event>
<event>
 4    1  0.4967105E-021  0.5000050E+01  0.7818608E-02  0.2136455E+00
        -11   -1    0    0    0    0  0.00000000000E+00  0.00000000000E+00  0.50000499739E+01  0.50000500000E+01  0.51100000000E-03 0. -1.
         11   -1    0    0    0    0 -0.00000000000E+00 -0.00000000000E+00 -0.50000499739E+01  0.50000500000E+01  0.51100000000E-03 0.  1.
         50    1    1    2    0    0  0.12108363838E-01 -0.18026675735E-01  0.53318840095E-02  0.50000500000E+01  0.50000000000E+01 0.  1.
         50    1    1    2    0    0 -0.12108363838E-01  0.18026675735E-01 -0.53318840095E-02  0.50000500000E+01  0.50000000000E+01 0.  0.
</event>
<event>
 4    1  0.4967105E-021  0.5000050E+01  0.7818608E-02  0.2136455E+00
        -11   -1    0    0    0    0  0.00000000000E+00  0.00000000000E+00  0.50000499739E+01  0.50000500000E+01  0.51100000000E-03 0.  1.
         11   -1    0    0    0    0 -0.00000000000E+00 -0.00000000000E+00 -0.50000499739E+01  0.50000500000E+01  0.51100000000E-03 0. -1.
         50    1    1    2    0    0 -0.20340524541E-01 -0.21831164749E-02  0.90277108873E-02  0.50000500000E+01  0.50000000000E+01 0.  0.
         50    1    1    2    0    0  0.20340524541E-01  0.21831164749E-02 -0.90277108873E-02  0.50000500000E+01  0.50000000000E+01 0. -1.
</event>
<event>
 4    1  0.4967105E-021  0.5000050E+01  0.7818608E-02  0.2136455E+00
        -11   -1    0    0    0    0  0.00000000000E+00  0.00000000000E+00  0.50000499739E+01  0.50000500000E+01  0.51100000000E-03 0. -1.
         11   -1    0    0    0    0 -0.00000000000E+00 -0.00000000000E+00 -0.50000499739E+01  0.50000500000E+01  0.51100000000E-03 0.  1.
         50    1    1    2    0    0 -0.19593254149E-01  0.10357781917E-01 -0.29703948606E-02  0.50000500000E+01  0.50000000000E+01 0.  1.
         50    1    1    2    0    0  0.19593254149E-01 -0.10357781917E-01  0.29703948606E-02  0.50000500000E+01  0.50000000000E+01 0. -1.
</event>
<event>
 4    1  0.4967105E-021  0.5000050E+01  0.7818608E-02  0.2136455E+00
        -11   -1    0    0    0    0  0.00000000000E+00  0.00000000000E+00  0.50000499739E+01  0.50000500000E+01  0.51100000000E-03 0.  1.
         11   -1    0    0    0    0 -0.00000000000E+00 -0.00000000000E+00 -0.50000499739E+01  0.50000500000E+01  0.51100000000E-03 0. -1.
         50    1    1    2    0    0  0.60122181654E-02  0.18806960363E-01  0.10495426368E-01  0.50000500000E+01  0.50000000000E+01 0.  0.
         50    1    1    2    0    0 -0.60122181654E-02 -0.18806960363E-01 -0.10495426368E-01  0.50000500000E+01  0.50000000000E+01 0.  1.
</event>
<event>
 4    1  0.4967105E-021  0.5000050E+01  0.7818608E-02  0.2136455E+00
        -11   -1    0    0    0    0  0.00000000000E+00  0.00000000000E+00  0.50000499739E+01  0.50000500000E+01  0.51100000000E-03 0. -1.
         11   -1    0    0    0    0 -0.00000000000E+00 -0.00000000000E+00 -0.50000499739E+01  0.50000500000E+01  0.51100000000E-03 0.  1.
         50    1    1    2    0    0 -0.50346450964E-02  0.21783923132E-01 -0.33991429614E-03  0.50000500000E+01  0.50000000000E+01 0.  1.
         50    1    1    2    0    0  0.50346450964E-02 -0.21783923132E-01  0.33991429614E-03  0.50000500000E+01  0.50000000000E+01 0.  0.
</event>
<event>
 4    1  0.4967105E-021  0.5000050E+01  0.7818608E-02  0.2136455E+00
        -11   -1    0    0    0    0  0.00000000000E+00  0.00000000000E+00  0.50000499739E+01  0.50000500000E+01  0.51100000000E-03 0. -1.
         11   -1    0    0    0    0 -0.00000000000E+00 -0.00000000000E+00 -0.50000499739E+01  0.50000500000E+01  0.51100000000E-03 0.  1.
         50    1    1    2    0    0 -0.84946394856E-02  0.18726084301E-02 -0.20599440227E-01  0.50000500000E+01  0.50000000000E+01 0.  0.
         50    1    1    2    0    0  0.84946394856E-02 -0.18726084301E-02  0.20599440227E-01  0.50000500000E+01  0.50000000000E+01 0. -1.
</event>
<event>
 4    1  0.4967105E-021  0.5000050E+01  0.7818608E-02  0.2136455E+00
        -11   -1    0    0    0    0  0.00000000000E+00  0.00000000000E+00  0.50000499739E+01  0.50000500000E+01  0.51100000000E-03 0. -1.
         11   -1    0    0    0    0 -0.00000000000E+00 -0.00000000000E+00 -0.50000499739E+01  0.50000500000E+01  0.51100000000E-03 0.  1.
         50    1    1    2    0    0 -0.22088867415E-01 -0.11586899292E-03  0.34743360065E-02  0.50000500000E+01  0.50000000000E+01 0.  1.
         50    1    1    2    0    0  0.22088867415E-01  0.11586899292E-03 -0.34743360065E-02  0.50000500000E+01  0.50000000000E+01 0. -1.
</event>
<event>
 4    1  0.4967105E-021  0.5000050E+01  0.7818608E-02  0.2136455E+00
        -11   -1    0    0    0    0  0.00000000000E+00  0.00000000000E+00  0.50000499739E+01  0.50000500000E+01  0.51100000000E-03 0.  1.
         11   -1    0    0    0    0 -0.00000000000E+00 -0.00000000000E+00 -0.50000499739E+01  0.50000500000E+01  0.51100000000E-03 0. -1.
         50    1    1    2    0    0  0.22253544701E-01 -0.47228930887E-03  0.21352262329E-02  0.50000500000E+01  0.50000000000E+01 0. -1.
         50    1    1    2    0    0 -0.22253544701E-01  0.47228930887E-03 -0.21352262329E-02  0.50000500000E+01  0.50000000000E+01 0.  1.
</event>
<event>
 4    1  0.4967105E-021  0.5000050E+01  0.7818608E-02  0.2136455E+00
        -11   -1    0    0    0    0  0.00000000000E+00  0.00000000000E+00  0.50000499739E+01  0.50000500000E+01  0.51100000000E-03 0. -1.
         11   -1    0    0    0    0 -0.00000000000E+00 -0.00000000000E+00 -0.50000499739E+01  0.50000500000E+01  0.51100000000E-03 0.  1.
         50    1    1    2    0    0 -0.18059132949E-01  0.57923770599E-02 -0.11845614595E-01  0.50000500000E+01  0.50000000000E+01 0.  1.
         50    1    1    2    0    0  0.18059132949E-01 -0.57923770599E-02  0.11845614595E-01  0.50000500000E+01  0.50000000000E+01 0. -1.
</event>
<event>
 4    1  0.4967105E-021  0.5000050E+01  0.7818608E-02  0.2136455E+00
        -11   -1    0    0    0    0  0.00000000000E+00  0.00000000000E+00  0.50000499739E+01  0.50000500000E+01  0.51100000000E-03 0. -1.
         11   -1    0    0    0    0 -0.00000000000E+00 -0.00000000000E+00 -0.50000499739E+01  0.50000500000E+01  0.51100000000E-03 0.  1.
         50    1    1    2    0    0 -0.20257449099E-01 -0.67772327563E-02  0.66111551295E-02  0.50000500000E+01  0.50000000000E+01 0.  1.
         50    1    1    2    0    0  0.20257449099E-01  0.67772327563E-02 -0.66111551295E-02  0.50000500000E+01  0.50000000000E+01 0.  1.
</event>
<event>
 4    1  0.4967105E-021  0.5000050E+01  0.7818608E-02  0.2136455E+00
        -11   -1    0    0    0    0  0.00000000000E+00  0.00000000000E+00  0.50000499739E+01  0.50000500000E+01  0.51100000000E-03 0.  1.
         11   -1    0    0    0    0 -0.00000000000E+00 -0.00000000000E+00 -0.50000499739E+01  0.50000500000E+01  0.51100000000E-03 0. -1.
         50    1    1    2    0    0  0.16954786170E-01  0.87763656365E-02  0.11641010787E-01  0.50000500000E+01  0.50000000000E+01 0. -1.
         50    1    1    2    0    0 -0.16954786170E-01 -0.87763656365E-02 -0.11641010787E-01  0.50000500000E+01  0.50000000000E+01 0.  0.
</event>
<event>
 4    1  0.4967105E-021  0.5000050E+01  0.7818608E-02  0.2136455E+00
        -11   -1    0    0    0    0  0.00000000000E+00  0.00000000000E+00  0.50000499739E+01  0.50000500000E+01  0.51100000000E-03 0. -1.
         11   -1    0    0    0    0 -0.00000000000E+00 -0.00000000000E+00 -0.50000499739E+01  0.50000500000E+01  0.51100000000E-03 0.  1.
         50    1    1    2    0    0 -0.93100015760E-02 -0.31376016263E-02  0.20086857063E-01  0.50000500000E+01  0.50000000000E+01 0.  0.
         50    1    1    2    0    0  0.93100015760E-02  0.31376016263E-02 -0.20086857063E-01  0.50000500000E+01  0.50000000000E+01 0.  0.
</event>
<event>
 4    1  0.4967105E-021  0.5000050E+01  0.7818608E-02  0.2136455E+00
        -11   -1    0    0    0    0  0.00000000000E+00  0.00000000000E+00  0.50000499739E+01  0.50000500000E+01  0.51100000000E-03 0.  1.
         11   -1    0    0    0    0 -0.00000000000E+00 -0.00000000000E+00 -0.50000499739E+01  0.50000500000E+01  0.51100000000E-03 0. -1.
         50    1    1    2    0    0  0.36686354789E-02  0.66837400392E-02  0.21020733403E-01  0.50000500000E+01  0.50000000000E+01 0.  1.
         50    1    1    2    0    0 -0.36686354789E-02 -0.66837400392E-02 -0.21020733403E-01  0.50000500000E+01  0.50000000000E+01 0. -1.
</event>
<event>
 4    1  0.4967105E-021  0.5000050E+01  0.7818608E-02  0.2136455E+00
        -11   -1    0    0    0    0  0.00000000000E+00  0.00000000000E+00  0.50000499739E+01  0.50000500000E+01  0.51100000000E-03 0. -1.
         11   -1    0    0    0    0 -0.00000000000E+00 -0.00000000000E+00 -0.50000499739E+01  0.50000500000E+01  0.51100000000E-03 0.  1.
         50    1    1    2    0    0  0.20326127196E-01 -0.90431039419E-02 -0.22524041179E-02  0.50000500000E+01  0.50000000000E+01 0. -1.
         50    1    1    2    0    0 -0.20326127196E-01  0.90431039419E-02  0.22524041179E-02  0.50000500000E+01  0.50000000000E+01 0.  0.
</event>
<event>
 4    1  0.4967105E-021  0.5000050E+01  0.7818608E-02  0.2136455E+00
        -11   -1    0    0    0    0  0.00000000000E+00  0.00000000000E+00  0.50000499739E+01  0.50000500000E+01  0.51100000000E-03 0. -1.
         11   -1    0    0    0    0 -0.00000000000E+00 -0.00000000000E+00 -0.50000499739E+01  0.50000500000E+01  0.51100000000E-03 0.  1.
         50    1    1    2    0    0  0.39178519814E-02  0.15829902150E-01 -0.15299252719E-01  0.50000500000E+01  0.50000000000E+01 0.  1.
         50    1    1    2    0    0 -0.39178519814E-02 -0.15829902150E-01  0.15299252719E-01  0.50000500000E+01  0.50000000000E+01 0.  1.
</event>
<event>
 4    1  0.4967105E-021  0.5000050E+01  0.7818608E-02  0.2136455E+00
        -11   -1    0    0    0    0  0.00000000000E+00  0.00000000000E+00  0.50000499739E+01  0.50000500000E+01  0.51100000000E-03 0. -1.
         11   -1    0    0    0    0 -0.00000000000E+00 -0.00000000000E+00 -0.50000499739E+01  0.50000500000E+01  0.51100000000E-03 0.  1.
         50    1    1    2    0    0  0.17389929527E-01 -0.78709663884E-02 -0.11646490422E-01  0.50000500000E+01  0.50000000000E+01 0.  1.
         50    1    1    2    0    0 -0.17389929527E-01  0.78709663884E-02  0.11646490422E-01  0.50000500000E+01  0.50000000000E+01 0. -1.
</event>
<event>
 4    1  0.4967105E-021  0.5000050E+01  0.7818608E-02  0.2136455E+00
        -11   -1    0    0    0    0  0.00000000000E+00  0.00000000000E+00  0.50000499739E+01  0.50000500000E+01  0.51100000000E-03 0. -1.
         11   -1    0    0    0    0 -0.00000000000E+00 -0.00000000000E+00 -0.50000499739E+01  0.50000500000E+01  0.51100000000E-03 0.  1.
         50    1    1    2    0    0  0.19463696389E-01 -0.10919211783E-01 -0.13920621075E-02  0.50000500000E+01  0.50000000000E+01 0.  1.
         50    1    1    2    0    0 -0.19463696389E-01  0.10919211783E-01  0.13920621075E-02  0.50000500000E+01  0.50000000000E+01 0. -1.
</event>
<event>
 4    1  0.4967105E-021  0.5000050E+01  0.7818608E-02  0.2136455E+00
        -11   -1    0    0    0    0  0.00000000000E+00  0.00000000000E+00  0.50000499739E+01  0.50000500000E+01  0.51100000000E-03 0. -1.
         11   -1    0    0    0    0 -0.00000000000E+00 -0.00000000000E+00 -0.50000499739E+01  0.50000500000E+01  0.51100000000E-03 0.  1.
         50    1    1    2    0    0  0.28075508529E-02  0.11344715947E-01 -0.19063514322E-01  0.50000500000E+01  0.50000000000E+01 0.  1.
         50    1    1    2    0    0 -0.28075508529E-02 -0.11344715947E-01  0.19063514322E-01  0.50000500000E+01  0.50000000000E+01 0. -1.
</event>
<event>
 4    1  0.4967105E-021  0.5000050E+01  0.7818608E-02  0.2136455E+00
        -11   -1    0    0    0    0  0.00000000000E+00  0.00000000000E+00  0.50000499739E+01  0.50000500000E+01  0.51100000000E-03 0.  1.
         11   -1    0    0    0    0 -0.00000000000E+00 -0.00000000000E+00 -0.50000499739E+01  0.50000500000E+01  0.51100000000E-03 0. -1.
         50    1    1    2    0    0  0.24510618011E-02 -0.15178541541E-01 -0.16235968487E-01  0.50000500000E+01  0.50000000000E+01 0.  0.
         50    1    1    2    0    0 -0.24510618011E-02  0.15178541541E-01  0.16235968487E-01  0.50000500000E+01  0.50000000000E+01 0.  0.
</event>
<event>
 4    1  0.4967105E-021  0.5000050E+01  0.7818608E-02  0.2136455E+00
        -11   -1    0    0    0    0  0.00000000000E+00  0.00000000000E+00  0.50000499739E+01  0.50000500000E+01  0.51100000000E-03 0.  1.
         11   -1    0    0    0    0 -0.00000000000E+00 -0.00000000000E+00 -0.50000499739E+01  0.50000500000E+01  0.51100000000E-03 0. -1.
         50    1    1    2    0    0  0.11315199288E-01  0.32302548560E-02  0.19014053188E-01  0.50000500000E+01  0.50000000000E+01 0.  1.
         50    1    1    2    0    0 -0.11315199288E-01 -0.32302548560E-02 -0.19014053188E-01  0.50000500000E+01  0.50000000000E+01 0.  0.
</event>
<event>
 4    1  0.4967105E-021  0.5000050E+01  0.7818608E-02  0.2136455E+00
        -11   -1    0    0    0    0  0.00000000000E+00  0.00000000000E+00  0.50000499739E+01  0.50000500000E+01  0.51100000000E-03 0. -1.
         11   -1    0    0    0    0 -0.00000000000E+00 -0.00000000000E+00 -0.50000499739E+01  0.50000500000E+01  0.51100000000E-03 0.  1.
         50    1    1    2    0    0  0.19830316142E-01 -0.94546918661E-03  0.10289176338E-01  0.50000500000E+01  0.50000000000E+01 0. -1.
         50    1    1    2    0    0 -0.19830316142E-01  0.94546918661E-03 -0.10289176338E-01  0.50000500000E+01  0.50000000000E+01 0.  1.
</event>
<event>
 4    1  0.4967105E-021  0.5000050E+01  0.7818608E-02  0.2136455E+00
        -11   -1    0    0    0    0  0.00000000000E+00  0.00000000000E+00  0.50000499739E+01  0.50000500000E+01  0.51100000000E-03 0. -1.
         11   -1    0    0    0    0 -0.00000000000E+00 -0.00000000000E+00 -0.50000499739E+01  0.50000500000E+01  0.51100000000E-03 0.  1.
         50    1    1    2    0    0  0.12952514284E-02  0.11721149619E-01  0.18998407179E-01  0.50000500000E+01  0.50000000000E+01 0. -1.
         50    1    1    2    0    0 -0.12952514284E-02 -0.11721149619E-01 -0.18998407179E-01  0.50000500000E+01  0.50000000000E+01 0.  0.
</event>
<event>
 4    1  0.4967105E-021  0.5000050E+01  0.7818608E-02  0.2136455E+00
        -11   -1    0    0    0    0  0.00000000000E+00  0.00000000000E+00  0.50000499739E+01  0.50000500000E+01  0.51100000000E-03 0. -1.
         11   -1    0    0    0    0 -0.00000000000E+00 -0.00000000000E+00 -0.50000499739E+01  0.50000500000E+01  0.51100000000E-03 0.  1.
         50    1    1    2    0    0  0.13366171584E-01 -0.17463897791E-01  0.40447782555E-02  0.50000500000E+01  0.50000000000E+01 0.  0.
         50    1    1    2    0    0 -0.13366171584E-01  0.17463897791E-01 -0.40447782555E-02  0.50000500000E+01  0.50000000000E+01 0.  1.
</event>
<event>
 4    1  0.4967105E-021  0.5000050E+01  0.7818608E-02  0.2136455E+00
        -11   -1    0    0    0    0  0.00000000000E+00  0.00000000000E+00  0.50000499739E+01  0.50000500000E+01  0.51100000000E-03 0. -1.
         11   -1    0    0    0    0 -0.00000000000E+00 -0.00000000000E+00 -0.50000499739E+01  0.50000500000E+01  0.51100000000E-03 0.  1.
         50    1    1    2    0    0 -0.75028178727E-03 -0.10552508039E-01  0.19699851556E-01  0.50000500000E+01  0.50000000000E+01 0.  0.
         50    1    1    2    0    0  0.75028178727E-03  0.10552508039E-01 -0.19699851556E-01  0.50000500000E+01  0.50000000000E+01 0.  1.
</event>
<event>
 4    1  0.4967105E-021  0.5000050E+01  0.7818608E-02  0.2136455E+00
        -11   -1    0    0    0    0  0.00000000000E+00  0.00000000000E+00  0.50000499739E+01  0.50000500000E+01  0.51100000000E-03 0. -1.
         11   -1    0    0    0    0 -0.00000000000E+00 -0.00000000000E+00 -0.50000499739E+01  0.50000500000E+01  0.51100000000E-03 0.  1.
         50    1    1    2    0    0  0.18268993809E-01 -0.12128081454E-01 -0.43767574120E-02  0.50000500000E+01  0.50000000000E+01 0.  1.
         50    1    1    2    0    0 -0.18268993809E-01  0.12128081454E-01  0.43767574120E-02  0.50000500000E+01  0.50000000000E+01 0. -1.
</event>
<event>
 4    1  0.4967105E-021  0.5000050E+01  0.7818608E-02  0.2136455E+00
        -11   -1    0    0    0    0  0.00000000000E+00  0.00000000000E+00  0.50000499739E+01  0.50000500000E+01  0.51100000000E-03 0. -1.
         11   -1    0    0    0    0 -0.00000000000E+00 -0.00000000000E+00 -0.50000499739E+01  0.50000500000E+01  0.51100000000E-03 0.  1.
         50    1    1    2    0    0 -0.10133465352E-02 -0.75603442285E-02  0.21019439192E-01  0.50000500000E+01  0.50000000000E+01 0.  0.
         50    1    1    2    0    0  0.10133465352E-02  0.75603442285E-02 -0.21019439192E-01  0.50000500000E+01  0.50000000000E+01 0.  1.
</event>
<event>
 4    1  0.4967105E-021  0.5000050E+01  0.7818608E-02  0.2136455E+00
        -11   -1    0    0    0    0  0.00000000000E+00  0.00000000000E+00  0.50000499739E+01  0.50000500000E+01  0.51100000000E-03 0. -1.
         11   -1    0    0    0    0 -0.00000000000E+00 -0.00000000000E+00 -0.50000499739E+01  0.50000500000E+01  0.51100000000E-03 0.  1.
         50    1    1    2    0    0  0.14949162701E-01  0.20830181801E-02 -0.16498062607E-01  0.50000500000E+01  0.50000000000E+01 0. -1.
         50    1    1    2    0    0 -0.14949162701E-01 -0.20830181801E-02  0.16498062607E-01  0.50000500000E+01  0.50000000000E+01 0. -1.
</event>
<event>
 4    1  0.4967105E-021  0.5000050E+01  0.7818608E-02  0.2136455E+00
        -11   -1    0    0    0    0  0.00000000000E+00  0.00000000000E+00  0.50000499739E+01  0.50000500000E+01  0.51100000000E-03 0.  1.
         11   -1    0    0    0    0 -0.00000000000E+00 -0.00000000000E+00 -0.50000499739E+01  0.50000500000E+01  0.51100000000E-03 0. -1.
         50    1    1    2    0    0 -0.16808479944E-01 -0.14692068873E-01  0.12730334575E-02  0.50000500000E+01  0.50000000000E+01 0.  0.
         50    1    1    2    0    0  0.16808479944E-01  0.14692068873E-01 -0.12730334575E-02  0.50000500000E+01  0.50000000000E+01 0. -1.
</event>
<event>
 4    1  0.4967105E-021  0.5000050E+01  0.7818608E-02  0.2136455E+00
        -11   -1    0    0    0    0  0.00000000000E+00  0.00000000000E+00  0.50000499739E+01  0.50000500000E+01  0.51100000000E-03 0.  1.
         11   -1    0    0    0    0 -0.00000000000E+00 -0.00000000000E+00 -0.50000499739E+01  0.50000500000E+01  0.51100000000E-03 0. -1.
         50    1    1    2    0    0 -0.14765681920E-01 -0.97557243178E-02  0.13667588685E-01  0.50000500000E+01  0.50000000000E+01 0.  0.
         50    1    1    2    0    0  0.14765681920E-01  0.97557243178E-02 -0.13667588685E-01  0.50000500000E+01  0.50000000000E+01 0.  0.
</event>
<event>
 4    1  0.4967105E-021  0.5000050E+01  0.7818608E-02  0.2136455E+00
        -11   -1    0    0    0    0  0.00000000000E+00  0.00000000000E+00  0.50000499739E+01  0.50000500000E+01  0.51100000000E-03 0.  1.
         11   -1    0    0    0    0 -0.00000000000E+00 -0.00000000000E+00 -0.50000499739E+01  0.50000500000E+01  0.51100000000E-03 0. -1.
         50    1    1    2    0    0 -0.17565671040E-01 -0.90329904696E-02 -0.10481163298E-01  0.50000500000E+01  0.50000000000E+01 0.  0.
         50    1    1    2    0    0  0.17565671040E-01  0.90329904696E-02  0.10481163298E-01  0.50000500000E+01  0.50000000000E+01 0. -1.
</event>
<event>
 4    1  0.4967105E-021  0.5000050E+01  0.7818608E-02  0.2136455E+00
        -11   -1    0    0    0    0  0.00000000000E+00  0.00000000000E+00  0.50000499739E+01  0.50000500000E+01  0.51100000000E-03 0. -1.
         11   -1    0    0    0    0 -0.00000000000E+00 -0.00000000000E+00 -0.50000499739E+01  0.50000500000E+01  0.51100000000E-03 0.  1.
         50    1    1    2    0    0  0.12092080892E-01 -0.29346929099E-02  0.18578795903E-01  0.50000500000E+01  0.50000000000E+01 0. -1.
         50    1    1    2    0    0 -0.12092080892E-01  0.29346929099E-02 -0.18578795903E-01  0.50000500000E+01  0.50000000000E+01 0.  1.
</event>
<event>
 4    1  0.4967105E-021  0.5000050E+01  0.7818608E-02  0.2136455E+00
        -11   -1    0    0    0    0  0.00000000000E+00  0.00000000000E+00  0.50000499739E+01  0.50000500000E+01  0.51100000000E-03 0. -1.
         11   -1    0    0    0    0 -0.00000000000E+00 -0.00000000000E+00 -0.50000499739E+01  0.50000500000E+01  0.51100000000E-03 0.  1.
         50    1    1    2    0    0  0.41990159424E-02  0.11056782138E-01 -0.18976784076E-01  0.50000500000E+01  0.50000000000E+01 0.  0.
         50    1    1    2    0    0 -0.41990159424E-02 -0.11056782138E-01  0.18976784076E-01  0.50000500000E+01  0.50000000000E+01 0.  0.
</event>
<event>
 4    1  0.4967105E-021  0.5000050E+01  0.7818608E-02  0.2136455E+00
        -11   -1    0    0    0    0  0.00000000000E+00  0.00000000000E+00  0.50000499739E+01  0.50000500000E+01  0.51100000000E-03 0. -1.
         11   -1    0    0    0    0 -0.00000000000E+00 -0.00000000000E+00 -0.50000499739E+01  0.50000500000E+01  0.51100000000E-03 0.  1.
         50    1    1    2    0    0 -0.14218407111E-01 -0.77505602350E-02  0.15419734604E-01  0.50000500000E+01  0.50000000000E+01 0. -1.
         50    1    1    2    0    0  0.14218407111E-01  0.77505602350E-02 -0.15419734604E-01  0.50000500000E+01  0.50000000000E+01 0.  0.
</event>
<event>
 4    1  0.4967105E-021  0.5000050E+01  0.7818608E-02  0.2136455E+00
        -11   -1    0    0    0    0  0.00000000000E+00  0.00000000000E+00  0.50000499739E+01  0.50000500000E+01  0.51100000000E-03 0.  1.
         11   -1    0    0    0    0 -0.00000000000E+00 -0.00000000000E+00 -0.50000499739E+01  0.50000500000E+01  0.51100000000E-03 0. -1.
         50    1    1    2    0    0  0.11173441122E-02 -0.16991482662E-01  0.14492879600E-01  0.50000500000E+01  0.50000000000E+01 0.  0.
         50    1    1    2    0    0 -0.11173441122E-02  0.16991482662E-01 -0.14492879600E-01  0.50000500000E+01  0.50000000000E+01 0.  0.
</event>
<event>
 4    1  0.4967105E-021  0.5000050E+01  0.7818608E-02  0.2136455E+00
        -11   -1    0    0    0    0  0.00000000000E+00  0.00000000000E+00  0.50000499739E+01  0.50000500000E+01  0.51100000000E-03 0.  1.
         11   -1    0    0    0    0 -0.00000000000E+00 -0.00000000000E+00 -0.50000499739E+01  0.50000500000E+01  0.51100000000E-03 0. -1.
         50    1    1    2    0    0  0.18176528568E-01 -0.28639781254E-02 -0.12704878532E-01  0.50000500000E+01  0.50000000000E+01 0.  1.
         50    1    1    2    0    0 -0.18176528568E-01  0.28639781254E-02  0.12704878532E-01  0.50000500000E+01  0.50000000000E+01 0.  1.
</event>
<event>
 4    1  0.4967105E-021  0.5000050E+01  0.7818608E-02  0.2136455E+00
        -11   -1    0    0    0    0  0.00000000000E+00  0.00000000000E+00  0.50000499739E+01  0.50000500000E+01  0.51100000000E-03 0.  1.
         11   -1    0    0    0    0 -0.00000000000E+00 -0.00000000000E+00 -0.50000499739E+01  0.50000500000E+01  0.51100000000E-03 0. -1.
         50    1    1    2    0    0  0.12697257988E-01 -0.73359557937E-02  0.16880932799E-01  0.50000500000E+01  0.50000000000E+01 0.  1.
         50    1    1    2    0    0 -0.12697257988E-01  0.73359557937E-02 -0.16880932799E-01  0.50000500000E+01  0.50000000000E+01 0. -1.
</event>
<event>
 4    1  0.4967105E-021  0.5000050E+01  0.7818608E-02  0.2136455E+00
        -11   -1    0    0    0    0  0.00000000000E+00  0.00000000000E+00  0.50000499739E+01  0.50000500000E+01  0.51100000000E-03 0.  1.
         11   -1    0    0    0    0 -0.00000000000E+00 -0.00000000000E+00 -0.50000499739E+01  0.50000500000E+01  0.51100000000E-03 0. -1.
         50    1    1    2    0    0  0.94149273867E-02  0.19681443190E-01 -0.48992281309E-02  0.50000500000E+01  0.50000000000E+01 0.  1.
         50    1    1    2    0    0 -0.94149273867E-02 -0.19681443190E-01  0.48992281309E-02  0.50000500000E+01  0.50000000000E+01 0.  0.
</event>
<event>
 4    1  0.4967105E-021  0.5000050E+01  0.7818608E-02  0.2136455E+00
        -11   -1    0    0    0    0  0.00000000000E+00  0.00000000000E+00  0.50000499739E+01  0.50000500000E+01  0.51100000000E-03 0. -1.
         11   -1    0    0    0    0 -0.00000000000E+00 -0.00000000000E+00 -0.50000499739E+01  0.50000500000E+01  0.51100000000E-03 0.  1.
         50    1    1    2    0    0  0.13966763685E-01  0.15967099078E-01 -0.70699193201E-02  0.50000500000E+01  0.50000000000E+01 0.  0.
         50    1    1    2    0    0 -0.13966763685E-01 -0.15967099078E-01  0.70699193201E-02  0.50000500000E+01  0.50000000000E+01 0.  1.
</event>
<event>
 4    1  0.4967105E-021  0.5000050E+01  0.7818608E-02  0.2136455E+00
        -11   -1    0    0    0    0  0.00000000000E+00  0.00000000000E+00  0.50000499739E+01  0.50000500000E+01  0.51100000000E-03 0.  1.
         11   -1    0    0    0    0 -0.00000000000E+00 -0.00000000000E+00 -0.50000499739E+01  0.50000500000E+01  0.51100000000E-03 0. -1.
         50    1    1    2    0    0  0.20920932776E-01  0.78725160273E-02 -0.58357792612E-03  0.50000500000E+01  0.50000000000E+01 0. -1.
         50    1    1    2    0    0 -0.20920932776E-01 -0.78725160273E-02  0.58357792612E-03  0.50000500000E+01  0.50000000000E+01 0.  1.
</event>
<event>
 4    1  0.4967105E-021  0.5000050E+01  0.7818608E-02  0.2136455E+00
        -11   -1    0    0    0    0  0.00000000000E+00  0.00000000000E+00  0.50000499739E+01  0.50000500000E+01  0.51100000000E-03 0. -1.
         11   -1    0    0    0    0 -0.00000000000E+00 -0.00000000000E+00 -0.50000499739E+01  0.50000500000E+01  0.51100000000E-03 0.  1.
         50    1    1    2    0    0 -0.29759408489E-02 -0.87804306099E-03 -0.22144419533E-01  0.50000500000E+01  0.50000000000E+01 0.  0.
         50    1    1    2    0    0  0.29759408489E-02  0.87804306099E-03  0.22144419533E-01  0.50000500000E+01  0.50000000000E+01 0. -1.
</event>
<event>
 4    1  0.4967105E-021  0.5000050E+01  0.7818608E-02  0.2136455E+00
        -11   -1    0    0    0    0  0.00000000000E+00  0.00000000000E+00  0.50000499739E+01  0.50000500000E+01  0.51100000000E-03 0. -1.
         11   -1    0    0    0    0 -0.00000000000E+00 -0.00000000000E+00 -0.50000499739E+01  0.50000500000E+01  0.51100000000E-03 0.  1.
         50    1    1    2    0    0  0.19603557776E-01  0.36399503385E-02 -0.10121945665E-01  0.50000500000E+01  0.50000000000E+01 0. -1.
         50    1    1    2    0    0 -0.19603557776E-01 -0.36399503385E-02  0.10121945665E-01  0.50000500000E+01  0.50000000000E+01 0.  0.
</event>
<event>
 4    1  0.4967105E-021  0.5000050E+01  0.7818608E-02  0.2136455E+00
        -11   -1    0    0    0    0  0.00000000000E+00  0.00000000000E+00  0.50000499739E+01  0.50000500000E+01  0.51100000000E-03 0. -1.
         11   -1    0    0    0    0 -0.00000000000E+00 -0.00000000000E+00 -0.50000499739E+01  0.50000500000E+01  0.51100000000E-03 0.  1.
         50    1    1    2    0    0 -0.18088928509E-01  0.83009022485E-02  0.10192555483E-01  0.50000500000E+01  0.50000000000E+01 0.  0.
         50    1    1    2    0    0  0.18088928509E-01 -0.83009022485E-02 -0.10192555483E-01  0.50000500000E+01  0.50000000000E+01 0. -1.
</event>
<event>
 4    1  0.4967105E-021  0.5000050E+01  0.7818608E-02  0.2136455E+00
        -11   -1    0    0    0    0  0.00000000000E+00  0.00000000000E+00  0.50000499739E+01  0.50000500000E+01  0.51100000000E-03 0. -1.
         11   -1    0    0    0    0 -0.00000000000E+00 -0.00000000000E+00 -0.50000499739E+01  0.50000500000E+01  0.51100000000E-03 0.  1.
         50    1    1    2    0    0 -0.18590864547E-01  0.12261135668E-01  0.20116678447E-02  0.50000500000E+01  0.50000000000E+01 0.  0.
         50    1    1    2    0    0  0.18590864547E-01 -0.12261135668E-01 -0.20116678447E-02  0.50000500000E+01  0.50000000000E+01 0.  1.
</event>
<event>
 4    1  0.4967105E-021  0.5000050E+01  0.7818608E-02  0.2136455E+00
        -11   -1    0    0    0    0  0.00000000000E+00  0.00000000000E+00  0.50000499739E+01  0.50000500000E+01  0.51100000000E-03 0.  1.
         11   -1    0    0    0    0 -0.00000000000E+00 -0.00000000000E+00 -0.50000499739E+01  0.50000500000E+01  0.51100000000E-03 0. -1.
         50    1    1    2    0    0 -0.16865907220E-01 -0.81948441471E-03  0.14658516942E-01  0.50000500000E+01  0.50000000000E+01 0.  0.
         50    1    1    2    0    0  0.16865907220E-01  0.81948441471E-03 -0.14658516942E-01  0.50000500000E+01  0.50000000000E+01 0.  0.
</event>
<event>
 4    1  0.4967105E-021  0.5000050E+01  0.7818608E-02  0.2136455E+00
        -11   -1    0    0    0    0  0.00000000000E+00  0.00000000000E+00  0.50000499739E+01  0.50000500000E+01  0.51100000000E-03 0. -1.
         11   -1    0    0    0    0 -0.00000000000E+00 -0.00000000000E+00 -0.50000499739E+01  0.50000500000E+01  0.51100000000E-03 0.  1.
         50    1    1    2    0    0  0.13578619786E-01  0.11517082296E-01 -0.13527024806E-01  0.50000500000E+01  0.50000000000E+01 0.  1.
         50    1    1    2    0    0 -0.13578619786E-01 -0.11517082296E-01  0.13527024806E-01  0.50000500000E+01  0.50000000000E+01 0. -1.
</event>
<event>
 4    1  0.4967105E-021  0.5000050E+01  0.7818608E-02  0.2136455E+00
        -11   -1    0    0    0    0  0.00000000000E+00  0.00000000000E+00  0.50000499739E+01  0.50000500000E+01  0.51100000000E-03 0. -1.
         11   -1    0    0    0    0 -0.00000000000E+00 -0.00000000000E+00 -0.50000499739E+01  0.50000500000E+01  0.51100000000E-03 0.  1.
         50    1    1    2    0    0 -0.48398513326E-02 -0.18642403383E-01 -0.11359539391E-01  0.50000500000E+01  0.50000000000E+01 0.  1.
         50    1    1    2    0    0  0.48398513326E-02  0.18642403383E-01  0.11359539391E-01  0.50000500000E+01  0.50000000000E+01 0.  1.
</event>
<event>
 4    1  0.4967105E-021  0.5000050E+01  0.7818608E-02  0.2136455E+00
        -11   -1    0    0    0    0  0.00000000000E+00  0.00000000000E+00  0.50000499739E+01  0.50000500000E+01  0.51100000000E-03 0.  1.
         11   -1    0    0    0    0 -0.00000000000E+00 -0.00000000000E+00 -0.50000499739E+01  0.50000500000E+01  0.51100000000E-03 0. -1.
         50    1    1    2    0    0  0.17084491851E-01  0.83658069234E-02  0.11753123530E-01  0.50000500000E+01  0.50000000000E+01 0.  1.
         50    1    1    2    0    0 -0.17084491851E-01 -0.83658069234E-02 -0.11753123530E-01  0.50000500000E+01  0.50000000000E+01 0. -1.
</event>
<event>
 4    1  0.4967105E-021  0.5000050E+01  0.7818608E-02  0.2136455E+00
        -11   -1    0    0    0    0  0.00000000000E+00  0.00000000000E+00  0.50000499739E+01  0.50000500000E+01  0.51100000000E-03 0. -1.
         11   -1    0    0    0    0 -0.00000000000E+00 -0.00000000000E+00 -0.50000499739E+01  0.50000500000E+01  0.51100000000E-03 0.  1.
         50    1    1    2    0    0 -0.18196066696E-01 -0.12683147096E-01  0.28360952992E-02  0.50000500000E+01  0.50000000000E+01 0. -1.
         50    1    1    2    0    0  0.18196066696E-01  0.12683147096E-01 -0.28360952992E-02  0.50000500000E+01  0.50000000000E+01 0.  1.
</event>
<event>
 4    1  0.4967105E-021  0.5000050E+01  0.7818608E-02  0.2136455E+00
        -11   -1    0    0    0    0  0.00000000000E+00  0.00000000000E+00  0.50000499739E+01  0.50000500000E+01  0.51100000000E-03 0.  1.
         11   -1    0    0    0    0 -0.00000000000E+00 -0.00000000000E+00 -0.50000499739E+01  0.50000500000E+01  0.51100000000E-03 0. -1.
         50    1    1    2    0    0 -0.18688661773E-01 -0.65771866261E-02 -0.10367113255E-01  0.50000500000E+01  0.50000000000E+01 0. -1.
         50    1    1    2    0    0  0.18688661773E-01  0.65771866261E-02  0.10367113255E-01  0.50000500000E+01  0.50000000000E+01 0.  1.
</event>
<event>
 4    1  0.4967105E-021  0.5000050E+01  0.7818608E-02  0.2136455E+00
        -11   -1    0    0    0    0  0.00000000000E+00  0.00000000000E+00  0.50000499739E+01  0.50000500000E+01  0.51100000000E-03 0. -1.
         11   -1    0    0    0    0 -0.00000000000E+00 -0.00000000000E+00 -0.50000499739E+01  0.50000500000E+01  0.51100000000E-03 0.  1.
         50    1    1    2    0    0  0.10644572204E-01 -0.18129795243E-01 -0.76161740420E-02  0.50000500000E+01  0.50000000000E+01 0.  1.
         50    1    1    2    0    0 -0.10644572204E-01  0.18129795243E-01  0.76161740420E-02  0.50000500000E+01  0.50000000000E+01 0. -1.
</event>
<event>
 4    1  0.4967105E-021  0.5000050E+01  0.7818608E-02  0.2136455E+00
        -11   -1    0    0    0    0  0.00000000000E+00  0.00000000000E+00  0.50000499739E+01  0.50000500000E+01  0.51100000000E-03 0.  1.
         11   -1    0    0    0    0 -0.00000000000E+00 -0.00000000000E+00 -0.50000499739E+01  0.50000500000E+01  0.51100000000E-03 0. -1.
         50    1    1    2    0    0  0.43411007702E-02  0.16341204325E-01 -0.14632921284E-01  0.50000500000E+01  0.50000000000E+01 0. -1.
         50    1    1    2    0    0 -0.43411007702E-02 -0.16341204325E-01  0.14632921284E-01  0.50000500000E+01  0.50000000000E+01 0.  1.
</event>
<event>
 4    1  0.4967105E-021  0.5000050E+01  0.7818608E-02  0.2136455E+00
        -11   -1    0    0    0    0  0.00000000000E+00  0.00000000000E+00  0.50000499739E+01  0.50000500000E+01  0.51100000000E-03 0. -1.
         11   -1    0    0    0    0 -0.00000000000E+00 -0.00000000000E+00 -0.50000499739E+01  0.50000500000E+01  0.51100000000E-03 0.  1.
         50    1    1    2    0    0  0.17682225322E-02  0.21835383640E-01 -0.44824000701E-02  0.50000500000E+01  0.50000000000E+01 0. -1.
         50    1    1    2    0    0 -0.17682225322E-02 -0.21835383640E-01  0.44824000701E-02  0.50000500000E+01  0.50000000000E+01 0.  0.
</event>
<event>
 4    1  0.4967105E-021  0.5000050E+01  0.7818608E-02  0.2136455E+00
        -11   -1    0    0    0    0  0.00000000000E+00  0.00000000000E+00  0.50000499739E+01  0.50000500000E+01  0.51100000000E-03 0.  1.
         11   -1    0    0    0    0 -0.00000000000E+00 -0.00000000000E+00 -0.50000499739E+01  0.50000500000E+01  0.51100000000E-03 0. -1.
         50    1    1    2    0    0  0.63775184881E-02 -0.10402959940E-01 -0.18737880948E-01  0.50000500000E+01  0.50000000000E+01 0. -1.
         50    1    1    2    0    0 -0.63775184881E-02  0.10402959940E-01  0.18737880948E-01  0.50000500000E+01  0.50000000000E+01 0.  1.
</event>
<event>
 4    1  0.4967105E-021  0.5000050E+01  0.7818608E-02  0.2136455E+00
        -11   -1    0    0    0    0  0.00000000000E+00  0.00000000000E+00  0.50000499739E+01  0.50000500000E+01  0.51100000000E-03 0. -1.
         11   -1    0    0    0    0 -0.00000000000E+00 -0.00000000000E+00 -0.50000499739E+01  0.50000500000E+01  0.51100000000E-03 0.  1.
         50    1    1    2    0    0  0.53076363544E-02 -0.21337779701E-01  0.40657906665E-02  0.50000500000E+01  0.50000000000E+01 0. -1.
         50    1    1    2    0    0 -0.53076363544E-02  0.21337779701E-01 -0.40657906665E-02  0.50000500000E+01  0.50000000000E+01 0.  1.
</event>
<event>
 4    1  0.4967105E-021  0.5000050E+01  0.7818608E-02  0.2136455E+00
        -11   -1    0    0    0    0  0.00000000000E+00  0.00000000000E+00  0.50000499739E+01  0.50000500000E+01  0.51100000000E-03 0. -1.
         11   -1    0    0    0    0 -0.00000000000E+00 -0.00000000000E+00 -0.50000499739E+01  0.50000500000E+01  0.51100000000E-03 0.  1.
         50    1    1    2    0    0 -0.86145676919E-02  0.65550561670E-03 -0.20624306918E-01  0.50000500000E+01  0.50000000000E+01 0.  1.
         50    1    1    2    0    0  0.86145676919E-02 -0.65550561670E-03  0.20624306918E-01  0.50000500000E+01  0.50000000000E+01 0.  0.
</event>
<event>
 4    1  0.4967105E-021  0.5000050E+01  0.7818608E-02  0.2136455E+00
        -11   -1    0    0    0    0  0.00000000000E+00  0.00000000000E+00  0.50000499739E+01  0.50000500000E+01  0.51100000000E-03 0.  1.
         11   -1    0    0    0    0 -0.00000000000E+00 -0.00000000000E+00 -0.50000499739E+01  0.50000500000E+01  0.51100000000E-03 0. -1.
         50    1    1    2    0    0  0.81758701835E-02 -0.19094653906E-01 -0.82796037924E-02  0.50000500000E+01  0.50000000000E+01 0.  1.
         50    1    1    2    0    0 -0.81758701835E-02  0.19094653906E-01  0.82796037924E-02  0.50000500000E+01  0.50000000000E+01 0.  0.
</event>
<event>
 4    1  0.4967105E-021  0.5000050E+01  0.7818608E-02  0.2136455E+00
        -11   -1    0    0    0    0  0.00000000000E+00  0.00000000000E+00  0.50000499739E+01  0.50000500000E+01  0.51100000000E-03 0. -1.
         11   -1    0    0    0    0 -0.00000000000E+00 -0.00000000000E+00 -0.50000499739E+01  0.50000500000E+01  0.51100000000E-03 0.  1.
         50    1    1    2    0    0  0.15959272088E-01 -0.11198904416E-01 -0.10949368671E-01  0.50000500000E+01  0.50000000000E+01 0.  0.
         50    1    1    2    0    0 -0.15959272088E-01  0.11198904416E-01  0.10949368671E-01  0.50000500000E+01  0.50000000000E+01 0.  1.
</event>
<event>
 4    1  0.4967105E-021  0.5000050E+01  0.7818608E-02  0.2136455E+00
        -11   -1    0    0    0    0  0.00000000000E+00  0.00000000000E+00  0.50000499739E+01  0.50000500000E+01  0.51100000000E-03 0.  1.
         11   -1    0    0    0    0 -0.00000000000E+00 -0.00000000000E+00 -0.50000499739E+01  0.50000500000E+01  0.51100000000E-03 0. -1.
         50    1    1    2    0    0  0.17524169951E-02  0.21069057193E-01 -0.72819203271E-02  0.50000500000E+01  0.50000000000E+01 0.  1.
         50    1    1    2    0    0 -0.17524169951E-02 -0.21069057193E-01  0.72819203271E-02  0.50000500000E+01  0.50000000000E+01 0. -1.
</event>
<event>
 4    1  0.4967105E-021  0.5000050E+01  0.7818608E-02  0.2136455E+00
        -11   -1    0    0    0    0  0.00000000000E+00  0.00000000000E+00  0.50000499739E+01  0.50000500000E+01  0.51100000000E-03 0.  1.
         11   -1    0    0    0    0 -0.00000000000E+00 -0.00000000000E+00 -0.50000499739E+01  0.50000500000E+01  0.51100000000E-03 0. -1.
         50    1    1    2    0    0  0.10017182671E-01 -0.10363101798E-01 -0.17095750128E-01  0.50000500000E+01  0.50000000000E+01 0.  0.
         50    1    1    2    0    0 -0.10017182671E-01  0.10363101798E-01  0.17095750128E-01  0.50000500000E+01  0.50000000000E+01 0.  0.
</event>
<event>
 4    1  0.4967105E-021  0.5000050E+01  0.7818608E-02  0.2136455E+00
        -11   -1    0    0    0    0  0.00000000000E+00  0.00000000000E+00  0.50000499739E+01  0.50000500000E+01  0.51100000000E-03 0. -1.
         11   -1    0    0    0    0 -0.00000000000E+00 -0.00000000000E+00 -0.50000499739E+01  0.50000500000E+01  0.51100000000E-03 0.  1.
         50    1    1    2    0    0  0.14115269341E-01 -0.92173223950E-02  0.14690222574E-01  0.50000500000E+01  0.50000000000E+01 0.  0.
         50    1    1    2    0    0 -0.14115269341E-01  0.92173223950E-02 -0.14690222574E-01  0.50000500000E+01  0.50000000000E+01 0.  1.
</event>
<event>
 4    1  0.4967105E-021  0.5000050E+01  0.7818608E-02  0.2136455E+00
        -11   -1    0    0    0    0  0.00000000000E+00  0.00000000000E+00  0.50000499739E+01  0.50000500000E+01  0.51100000000E-03 0. -1.
         11   -1    0    0    0    0 -0.00000000000E+00 -0.00000000000E+00 -0.50000499739E+01  0.50000500000E+01  0.51100000000E-03 0.  1.
         50    1    1    2    0    0 -0.15195071589E-01 -0.42414009646E-02  0.15846855122E-01  0.50000500000E+01  0.50000000000E+01 0.  0.
         50    1    1    2    0    0  0.15195071589E-01  0.42414009646E-02 -0.15846855122E-01  0.50000500000E+01  0.50000000000E+01 0.  0.
</event>
<event>
 4    1  0.4967105E-021  0.5000050E+01  0.7818608E-02  0.2136455E+00
        -11   -1    0    0    0    0  0.00000000000E+00  0.00000000000E+00  0.50000499739E+01  0.50000500000E+01  0.51100000000E-03 0.  1.
         11   -1    0    0    0    0 -0.00000000000E+00 -0.00000000000E+00 -0.50000499739E+01  0.50000500000E+01  0.51100000000E-03 0. -1.
         50    1    1    2    0    0  0.15745253697E-01  0.13940717101E-01  0.75990718335E-02  0.50000500000E+01  0.50000000000E+01 0.  0.
         50    1    1    2    0    0 -0.15745253697E-01 -0.13940717101E-01 -0.75990718335E-02  0.50000500000E+01  0.50000000000E+01 0.  1.
</event>
<event>
 4    1  0.4967105E-021  0.5000050E+01  0.7818608E-02  0.2136455E+00
        -11   -1    0    0    0    0  0.00000000000E+00  0.00000000000E+00  0.50000499739E+01  0.50000500000E+01  0.51100000000E-03 0. -1.
         11   -1    0    0    0    0 -0.00000000000E+00 -0.00000000000E+00 -0.50000499739E+01  0.50000500000E+01  0.51100000000E-03 0.  1.
         50    1    1    2    0    0  0.13598272578E-01  0.17401726287E-01 -0.35027710638E-02  0.50000500000E+01  0.50000000000E+01 0. -1.
         50    1    1    2    0    0 -0.13598272578E-01 -0.17401726287E-01  0.35027710638E-02  0.50000500000E+01  0.50000000000E+01 0.  0.
</event>
<event>
 4    1  0.4967105E-021  0.5000050E+01  0.7818608E-02  0.2136455E+00
        -11   -1    0    0    0    0  0.00000000000E+00  0.00000000000E+00  0.50000499739E+01  0.50000500000E+01  0.51100000000E-03 0.  1.
         11   -1    0    0    0    0 -0.00000000000E+00 -0.00000000000E+00 -0.50000499739E+01  0.50000500000E+01  0.51100000000E-03 0. -1.
         50    1    1    2    0    0  0.13182825220E-01 -0.13182376986E-02 -0.18013269236E-01  0.50000500000E+01  0.50000000000E+01 0. -1.
         50    1    1    2    0    0 -0.13182825220E-01  0.13182376986E-02  0.18013269236E-01  0.50000500000E+01  0.50000000000E+01 0.  1.
</event>
<event>
 4    1  0.4967105E-021  0.5000050E+01  0.7818608E-02  0.2136455E+00
        -11   -1    0    0    0    0  0.00000000000E+00  0.00000000000E+00  0.50000499739E+01  0.50000500000E+01  0.51100000000E-03 0.  1.
         11   -1    0    0    0    0 -0.00000000000E+00 -0.00000000000E+00 -0.50000499739E+01  0.50000500000E+01  0.51100000000E-03 0. -1.
         50    1    1    2    0    0  0.59781846549E-02  0.21405211679E-01  0.24659118376E-02  0.50000500000E+01  0.50000000000E+01 0.  0.
         50    1    1    2    0    0 -0.59781846549E-02 -0.21405211679E-01 -0.24659118376E-02  0.50000500000E+01  0.50000000000E+01 0. -1.
</event>
<event>
 4    1  0.4967105E-021  0.5000050E+01  0.7818608E-02  0.2136455E+00
        -11   -1    0    0    0    0  0.00000000000E+00  0.00000000000E+00  0.50000499739E+01  0.50000500000E+01  0.51100000000E-03 0.  1.
         11   -1    0    0    0    0 -0.00000000000E+00 -0.00000000000E+00 -0.50000499739E+01  0.50000500000E+01  0.51100000000E-03 0. -1.
         50    1    1    2    0    0  0.21991137879E-01  0.34868447145E-02  0.20577338846E-02  0.50000500000E+01  0.50000000000E+01 0.  0.
         50    1    1    2    0    0 -0.21991137879E-01 -0.34868447145E-02 -0.20577338846E-02  0.50000500000E+01  0.50000000000E+01 0.  1.
</event>
<event>
 4    1  0.4967105E-021  0.5000050E+01  0.7818608E-02  0.2136455E+00
        -11   -1    0    0    0    0  0.00000000000E+00  0.00000000000E+00  0.50000499739E+01  0.50000500000E+01  0.51100000000E-03 0.  1.
         11   -1    0    0    0    0 -0.00000000000E+00 -0.00000000000E+00 -0.50000499739E+01  0.50000500000E+01  0.51100000000E-03 0. -1.
         50    1    1    2    0    0 -0.16155861455E-01  0.50052112532E-02  0.14626636693E-01  0.50000500000E+01  0.50000000000E+01 0.  0.
         50    1    1    2    0    0  0.16155861455E-01 -0.50052112532E-02 -0.14626636693E-01  0.50000500000E+01  0.50000000000E+01 0.  0.
</event>
<event>
 4    1  0.4967105E-021  0.5000050E+01  0.7818608E-02  0.2136455E+00
        -11   -1    0    0    0    0  0.00000000000E+00  0.00000000000E+00  0.50000499739E+01  0.50000500000E+01  0.51100000000E-03 0. -1.
         11   -1    0    0    0    0 -0.00000000000E+00 -0.00000000000E+00 -0.50000499739E+01  0.50000500000E+01  0.51100000000E-03 0.  1.
         50    1    1    2    0    0  0.15089411393E-01 -0.20879529426E-02 -0.16369258270E-01  0.50000500000E+01  0.50000000000E+01 0.  1.
         50    1    1    2    0    0 -0.15089411393E-01  0.20879529426E-02  0.16369258270E-01  0.50000500000E+01  0.50000000000E+01 0. -1.
</event>
<event>
 4    1  0.4967105E-021  0.5000050E+01  0.7818608E-02  0.2136455E+00
        -11   -1    0    0    0    0  0.00000000000E+00  0.00000000000E+00  0.50000499739E+01  0.50000500000E+01  0.51100000000E-03 0. -1.
         11   -1    0    0    0    0 -0.00000000000E+00 -0.00000000000E+00 -0.50000499739E+01  0.50000500000E+01  0.51100000000E-03 0.  1.
         50    1    1    2    0    0  0.10256935328E-01 -0.15353295095E-01 -0.12612458420E-01  0.50000500000E+01  0.50000000000E+01 0.  0.
         50    1    1    2    0    0 -0.10256935328E-01  0.15353295095E-01  0.12612458420E-01  0.50000500000E+01  0.50000000000E+01 0.  1.
</event>
<event>
 4    1  0.4967105E-021  0.5000050E+01  0.7818608E-02  0.2136455E+00
        -11   -1    0    0    0    0  0.00000000000E+00  0.00000000000E+00  0.50000499739E+01  0.50000500000E+01  0.51100000000E-03 0.  1.
         11   -1    0    0    0    0 -0.00000000000E+00 -0.00000000000E+00 -0.50000499739E+01  0.50000500000E+01  0.51100000000E-03 0. -1.
         50    1    1    2    0    0  0.17059570655E-01 -0.69247768742E-03  0.14439322135E-01  0.50000500000E+01  0.50000000000E+01 0.  1.
         50    1    1    2    0    0 -0.17059570655E-01  0.69247768742E-03 -0.14439322135E-01  0.50000500000E+01  0.50000000000E+01 0. -1.
</event>
<event>
 4    1  0.4967105E-021  0.5000050E+01  0.7818608E-02  0.2136455E+00
        -11   -1    0    0    0    0  0.00000000000E+00  0.00000000000E+00  0.50000499739E+01  0.50000500000E+01  0.51100000000E-03 0. -1.
         11   -1    0    0    0    0 -0.00000000000E+00 -0.00000000000E+00 -0.50000499739E+01  0.50000500000E+01  0.51100000000E-03 0.  1.
         50    1    1    2    0    0  0.15166592106E-01 -0.69025056117E-02 -0.14910814873E-01  0.50000500000E+01  0.50000000000E+01 0.  0.
         50    1    1    2    0    0 -0.15166592106E-01  0.69025056117E-02  0.14910814873E-01  0.50000500000E+01  0.50000000000E+01 0.  0.
</event>
<event>
 4    1  0.4967105E-021  0.5000050E+01  0.7818608E-02  0.2136455E+00
        -11   -1    0    0    0    0  0.00000000000E+00  0.00000000000E+00  0.50000499739E+01  0.50000500000E+01  0.51100000000E-03 0.  1.
         11   -1    0    0    0    0 -0.00000000000E+00 -0.00000000000E+00 -0.50000499739E+01  0.50000500000E+01  0.51100000000E-03 0. -1.
         50    1    1    2    0    0  0.11126195529E-01 -0.14534958972E-01 -0.12843100900E-01  0.50000500000E+01  0.50000000000E+01 0.  1.
         50    1    1    2    0    0 -0.11126195529E-01  0.14534958972E-01  0.12843100900E-01  0.50000500000E+01  0.50000000000E+01 0.  1.
</event>
<event>
 4    1  0.4967105E-021  0.5000050E+01  0.7818608E-02  0.2136455E+00
        -11   -1    0    0    0    0  0.00000000000E+00  0.00000000000E+00  0.50000499739E+01  0.50000500000E+01  0.51100000000E-03 0. -1.
         11   -1    0    0    0    0 -0.00000000000E+00 -0.00000000000E+00 -0.50000499739E+01  0.50000500000E+01  0.51100000000E-03 0.  1.
         50    1    1    2    0    0  0.10373724669E-01  0.65827739300E-02 -0.18683025020E-01  0.50000500000E+01  0.50000000000E+01 0. -1.
         50    1    1    2    0    0 -0.10373724669E-01 -0.65827739300E-02  0.18683025020E-01  0.50000500000E+01  0.50000000000E+01 0.  0.
</event>
<event>
 4    1  0.4967105E-021  0.5000050E+01  0.7818608E-02  0.2136455E+00
        -11   -1    0    0    0    0  0.00000000000E+00  0.00000000000E+00  0.50000499739E+01  0.50000500000E+01  0.51100000000E-03 0. -1.
         11   -1    0    0    0    0 -0.00000000000E+00 -0.00000000000E+00 -0.50000499739E+01  0.50000500000E+01  0.51100000000E-03 0.  1.
         50    1    1    2    0    0 -0.18182468547E-01  0.33223543385E-02  0.12584208326E-01  0.50000500000E+01  0.50000000000E+01 0.  0.
         50    1    1    2    0    0  0.18182468547E-01 -0.33223543385E-02 -0.12584208326E-01  0.50000500000E+01  0.50000000000E+01 0.  0.
</event>
<event>
 4    1  0.4967105E-021  0.5000050E+01  0.7818608E-02  0.2136455E+00
        -11   -1    0    0    0    0  0.00000000000E+00  0.00000000000E+00  0.50000499739E+01  0.50000500000E+01  0.51100000000E-03 0. -1.
         11   -1    0    0    0    0 -0.00000000000E+00 -0.00000000000E+00 -0.50000499739E+01  0.50000500000E+01  0.51100000000E-03 0.  1.
         50    1    1    2    0    0  0.16181011946E-01  0.51888171493E-02 -0.14534563254E-01  0.50000500000E+01  0.50000000000E+01 0. -1.
         50    1    1    2    0    0 -0.16181011946E-01 -0.51888171493E-02  0.14534563254E-01  0.50000500000E+01  0.50000000000E+01 0.  0.
</event>
<event>
 4    1  0.4967105E-021  0.5000050E+01  0.7818608E-02  0.2136455E+00
        -11   -1    0    0    0    0  0.00000000000E+00  0.00000000000E+00  0.50000499739E+01  0.50000500000E+01  0.51100000000E-03 0.  1.
         11   -1    0    0    0    0 -0.00000000000E+00 -0.00000000000E+00 -0.50000499739E+01  0.50000500000E+01  0.51100000000E-03 0. -1.
         50    1    1    2    0    0  0.18043975935E-01 -0.72048059737E-02 -0.11068342394E-01  0.50000500000E+01  0.50000000000E+01 0.  0.
         50    1    1    2    0    0 -0.18043975935E-01  0.72048059737E-02  0.11068342394E-01  0.50000500000E+01  0.50000000000E+01 0.  0.
</event>
<event>
 4    1  0.4967105E-021  0.5000050E+01  0.7818608E-02  0.2136455E+00
        -11   -1    0    0    0    0  0.00000000000E+00  0.00000000000E+00  0.50000499739E+01  0.50000500000E+01  0.51100000000E-03 0. -1.
         11   -1    0    0    0    0 -0.00000000000E+00 -0.00000000000E+00 -0.50000499739E+01  0.50000500000E+01  0.51100000000E-03 0.  1.
         50    1    1    2    0    0  0.15969609221E-01  0.37695497211E-02 -0.15190937305E-01  0.50000500000E+01  0.50000000000E+01 0.  0.
         50    1    1    2    0    0 -0.15969609221E-01 -0.37695497211E-02  0.15190937305E-01  0.50000500000E+01  0.50000000000E+01 0.  0.
</event>
<event>
 4    1  0.4967105E-021  0.5000050E+01  0.7818608E-02  0.2136455E+00
        -11   -1    0    0    0    0  0.00000000000E+00  0.00000000000E+00  0.50000499739E+01  0.50000500000E+01  0.51100000000E-03 0.  1.
         11   -1    0    0    0    0 -0.00000000000E+00 -0.00000000000E+00 -0.50000499739E+01  0.50000500000E+01  0.51100000000E-03 0. -1.
         50    1    1    2    0    0  0.18014326051E-01  0.12383684299E-01 -0.47043511901E-02  0.50000500000E+01  0.50000000000E+01 0.  0.
         50    1    1    2    0    0 -0.18014326051E-01 -0.12383684299E-01  0.47043511901E-02  0.50000500000E+01  0.50000000000E+01 0. -1.
</event>
<event>
 4    1  0.4967105E-021  0.5000050E+01  0.7818608E-02  0.2136455E+00
        -11   -1    0    0    0    0  0.00000000000E+00  0.00000000000E+00  0.50000499739E+01  0.50000500000E+01  0.51100000000E-03 0.  1.
         11   -1    0    0    0    0 -0.00000000000E+00 -0.00000000000E+00 -0.50000499739E+01  0.50000500000E+01  0.51100000000E-03 0. -1.
         50    1    1    2    0    0 -0.14688642207E-01  0.15910787754E-01  0.55761208010E-02  0.50000500000E+01  0.50000000000E+01 0. -1.
         50    1    1    2    0    0  0.14688642207E-01 -0.15910787754E-01 -0.55761208010E-02  0.50000500000E+01  0.50000000000E+01 0.  0.
</event>
<event>
 4    1  0.4967105E-021  0.5000050E+01  0.7818608E-02  0.2136455E+00
        -11   -1    0    0    0    0  0.00000000000E+00  0.00000000000E+00  0.50000499739E+01  0.50000500000E+01  0.51100000000E-03 0. -1.
         11   -1    0    0    0    0 -0.00000000000E+00 -0.00000000000E+00 -0.50000499739E+01  0.50000500000E+01  0.51100000000E-03 0.  1.
         50    1    1    2    0    0  0.34967917678E-02  0.20617290201E-01 -0.79184778894E-02  0.50000500000E+01  0.50000000000E+01 0.  1.
         50    1    1    2    0    0 -0.34967917678E-02 -0.20617290201E-01  0.79184778894E-02  0.50000500000E+01  0.50000000000E+01 0. -1.
</event>
<event>
 4    1  0.4967105E-021  0.5000050E+01  0.7818608E-02  0.2136455E+00
        -11   -1    0    0    0    0  0.00000000000E+00  0.00000000000E+00  0.50000499739E+01  0.50000500000E+01  0.51100000000E-03 0.  1.
         11   -1    0    0    0    0 -0.00000000000E+00 -0.00000000000E+00 -0.50000499739E+01  0.50000500000E+01  0.51100000000E-03 0. -1.
         50    1    1    2    0    0 -0.12072603782E-01  0.63723847569E-02  0.17710094591E-01  0.50000500000E+01  0.50000000000E+01 0.  1.
         50    1    1    2    0    0  0.12072603782E-01 -0.63723847569E-02 -0.17710094591E-01  0.50000500000E+01  0.50000000000E+01 0. -1.
</event>
<event>
 4    1  0.4967105E-021  0.5000050E+01  0.7818608E-02  0.2136455E+00
        -11   -1    0    0    0    0  0.00000000000E+00  0.00000000000E+00  0.50000499739E+01  0.50000500000E+01  0.51100000000E-03 0.  1.
         11   -1    0    0    0    0 -0.00000000000E+00 -0.00000000000E+00 -0.50000499739E+01  0.50000500000E+01  0.51100000000E-03 0. -1.
         50    1    1    2    0    0  0.20326904221E-01  0.86476343959E-02  0.34695654128E-02  0.50000500000E+01  0.50000000000E+01 0.  1.
         50    1    1    2    0    0 -0.20326904221E-01 -0.86476343959E-02 -0.34695654128E-02  0.50000500000E+01  0.50000000000E+01 0.  0.
</event>
<event>
 4    1  0.4967105E-021  0.5000050E+01  0.7818608E-02  0.2136455E+00
        -11   -1    0    0    0    0  0.00000000000E+00  0.00000000000E+00  0.50000499739E+01  0.50000500000E+01  0.51100000000E-03 0. -1.
         11   -1    0    0    0    0 -0.00000000000E+00 -0.00000000000E+00 -0.50000499739E+01  0.50000500000E+01  0.51100000000E-03 0.  1.
         50    1    1    2    0    0 -0.30771429145E-02  0.11100405433E-01 -0.19165455661E-01  0.50000500000E+01  0.50000000000E+01 0.  1.
         50    1    1    2    0    0  0.30771429145E-02 -0.11100405433E-01  0.19165455661E-01  0.50000500000E+01  0.50000000000E+01 0.  0.
</event>
<event>
 4    1  0.4967105E-021  0.5000050E+01  0.7818608E-02  0.2136455E+00
        -11   -1    0    0    0    0  0.00000000000E+00  0.00000000000E+00  0.50000499739E+01  0.50000500000E+01  0.51100000000E-03 0. -1.
         11   -1    0    0    0    0 -0.00000000000E+00 -0.00000000000E+00 -0.50000499739E+01  0.50000500000E+01  0.51100000000E-03 0.  1.
         50    1    1    2    0    0 -0.81817111330E-02  0.16849774544E-01  0.12212583705E-01  0.50000500000E+01  0.50000000000E+01 0.  1.
         50    1    1    2    0    0  0.81817111330E-02 -0.16849774544E-01 -0.12212583705E-01  0.50000500000E+01  0.50000000000E+01 0.  0.
</event>
<event>
 4    1  0.4967105E-021  0.5000050E+01  0.7818608E-02  0.2136455E+00
        -11   -1    0    0    0    0  0.00000000000E+00  0.00000000000E+00  0.50000499739E+01  0.50000500000E+01  0.51100000000E-03 0. -1.
         11   -1    0    0    0    0 -0.00000000000E+00 -0.00000000000E+00 -0.50000499739E+01  0.50000500000E+01  0.51100000000E-03 0.  1.
         50    1    1    2    0    0 -0.10665444283E-03  0.15086779683E-01  0.16503945092E-01  0.50000500000E+01  0.50000000000E+01 0. -1.
         50    1    1    2    0    0  0.10665444283E-03 -0.15086779683E-01 -0.16503945092E-01  0.50000500000E+01  0.50000000000E+01 0.  1.
</event>
<event>
 4    1  0.4967105E-021  0.5000050E+01  0.7818608E-02  0.2136455E+00
        -11   -1    0    0    0    0  0.00000000000E+00  0.00000000000E+00  0.50000499739E+01  0.50000500000E+01  0.51100000000E-03 0. -1.
         11   -1    0    0    0    0 -0.00000000000E+00 -0.00000000000E+00 -0.50000499739E+01  0.50000500000E+01  0.51100000000E-03 0.  1.
         50    1    1    2    0    0 -0.20287030949E-02  0.69243873221E-02 -0.21164586553E-01  0.50000500000E+01  0.50000000000E+01 0. -1.
         50    1    1    2    0    0  0.20287030949E-02 -0.69243873221E-02  0.21164586553E-01  0.50000500000E+01  0.50000000000E+01 0. -1.
</event>
<event>
 4    1  0.4967105E-021  0.5000050E+01  0.7818608E-02  0.2136455E+00
        -11   -1    0    0    0    0  0.00000000000E+00  0.00000000000E+00  0.50000499739E+01  0.50000500000E+01  0.51100000000E-03 0.  1.
         11   -1    0    0    0    0 -0.00000000000E+00 -0.00000000000E+00 -0.50000499739E+01  0.50000500000E+01  0.51100000000E-03 0. -1.
         50    1    1    2    0    0  0.17586965975E-01  0.91831737932E-02 -0.10313604941E-01  0.50000500000E+01  0.50000000000E+01 0.  1.
         50    1    1    2    0    0 -0.17586965975E-01 -0.91831737932E-02  0.10313604941E-01  0.50000500000E+01  0.50000000000E+01 0.  1.
</event>
<event>
 4    1  0.4967105E-021  0.5000050E+01  0.7818608E-02  0.2136455E+00
        -11   -1    0    0    0    0  0.00000000000E+00  0.00000000000E+00  0.50000499739E+01  0.50000500000E+01  0.51100000000E-03 0.  1.
         11   -1    0    0    0    0 -0.00000000000E+00 -0.00000000000E+00 -0.50000499739E+01  0.50000500000E+01  0.51100000000E-03 0. -1.
         50    1    1    2    0    0 -0.94974808617E-02  0.15652054555E-01  0.12837972795E-01  0.50000500000E+01  0.50000000000E+01 0.  1.
         50    1    1    2    0    0  0.94974808617E-02 -0.15652054555E-01 -0.12837972795E-01  0.50000500000E+01  0.50000000000E+01 0. -1.
</event>
<event>
 4    1  0.4967105E-021  0.5000050E+01  0.7818608E-02  0.2136455E+00
        -11   -1    0    0    0    0  0.00000000000E+00  0.00000000000E+00  0.50000499739E+01  0.50000500000E+01  0.51100000000E-03 0.  1.
         11   -1    0    0    0    0 -0.00000000000E+00 -0.00000000000E+00 -0.50000499739E+01  0.50000500000E+01  0.51100000000E-03 0. -1.
         50    1    1    2    0    0 -0.19934093126E-02  0.21683680568E-01  0.50839764302E-02  0.50000500000E+01  0.50000000000E+01 0. -1.
         50    1    1    2    0    0  0.19934093126E-02 -0.21683680568E-01 -0.50839764302E-02  0.50000500000E+01  0.50000000000E+01 0.  0.
</event>
<event>
 4    1  0.4967105E-021  0.5000050E+01  0.7818608E-02  0.2136455E+00
        -11   -1    0    0    0    0  0.00000000000E+00  0.00000000000E+00  0.50000499739E+01  0.50000500000E+01  0.51100000000E-03 0. -1.
         11   -1    0    0    0    0 -0.00000000000E+00 -0.00000000000E+00 -0.50000499739E+01  0.50000500000E+01  0.51100000000E-03 0.  1.
         50    1    1    2    0    0 -0.29083313389E-02  0.21407853889E-02 -0.22067196169E-01  0.50000500000E+01  0.50000000000E+01 0.  0.
         50    1    1    2    0    0  0.29083313389E-02 -0.21407853889E-02  0.22067196169E-01  0.50000500000E+01  0.50000000000E+01 0. -1.
</event>
<event>
 4    1  0.4967105E-021  0.5000050E+01  0.7818608E-02  0.2136455E+00
        -11   -1    0    0    0    0  0.00000000000E+00  0.00000000000E+00  0.50000499739E+01  0.50000500000E+01  0.51100000000E-03 0.  1.
         11   -1    0    0    0    0 -0.00000000000E+00 -0.00000000000E+00 -0.50000499739E+01  0.50000500000E+01  0.51100000000E-03 0. -1.
         50    1    1    2    0    0  0.10368487947E-01 -0.19039302755E-01 -0.54773997739E-02  0.50000500000E+01  0.50000000000E+01 0. -1.
         50    1    1    2    0    0 -0.10368487947E-01  0.19039302755E-01  0.54773997739E-02  0.50000500000E+01  0.50000000000E+01 0.  0.
</event>
<event>
 4    1  0.4967105E-021  0.5000050E+01  0.7818608E-02  0.2136455E+00
        -11   -1    0    0    0    0  0.00000000000E+00  0.00000000000E+00  0.50000499739E+01  0.50000500000E+01  0.51100000000E-03 0. -1.
         11   -1    0    0    0    0 -0.00000000000E+00 -0.00000000000E+00 -0.50000499739E+01  0.50000500000E+01  0.51100000000E-03 0.  1.
         50    1    1    2    0    0  0.22082147579E-01  0.27238322343E-02  0.22275538728E-02  0.50000500000E+01  0.50000000000E+01 0.  0.
         50    1    1    2    0    0 -0.22082147579E-01 -0.27238322343E-02 -0.22275538728E-02  0.50000500000E+01  0.50000000000E+01 0.  1.
</event>
<event>
 4    1  0.4967105E-021  0.5000050E+01  0.7818608E-02  0.2136455E+00
        -11   -1    0    0    0    0  0.00000000000E+00  0.00000000000E+00  0.50000499739E+01  0.50000500000E+01  0.51100000000E-03 0. -1.
         11   -1    0    0    0    0 -0.00000000000E+00 -0.00000000000E+00 -0.50000499739E+01  0.50000500000E+01  0.51100000000E-03 0.  1.
         50    1    1    2    0    0 -0.23077303259E-02  0.22193571725E-01 -0.14567960860E-02  0.50000500000E+01  0.50000000000E+01 0.  0.
         50    1    1    2    0    0  0.23077303259E-02 -0.22193571725E-01  0.14567960860E-02  0.50000500000E+01  0.50000000000E+01 0.  1.
</event>
<event>
 4    1  0.4967105E-021  0.5000050E+01  0.7818608E-02  0.2136455E+00
        -11   -1    0    0    0    0  0.00000000000E+00  0.00000000000E+00  0.50000499739E+01  0.50000500000E+01  0.51100000000E-03 0.  1.
         11   -1    0    0    0    0 -0.00000000000E+00 -0.00000000000E+00 -0.50000499739E+01  0.50000500000E+01  0.51100000000E-03 0. -1.
         50    1    1    2    0    0  0.13813193286E-01  0.15663091191E-01 -0.79916059440E-02  0.50000500000E+01  0.50000000000E+01 0.  0.
         50    1    1    2    0    0 -0.13813193286E-01 -0.15663091191E-01  0.79916059440E-02  0.50000500000E+01  0.50000000000E+01 0. -1.
</event>
<event>
 4    1  0.4967105E-021  0.5000050E+01  0.7818608E-02  0.2136455E+00
        -11   -1    0    0    0    0  0.00000000000E+00  0.00000000000E+00  0.50000499739E+01  0.50000500000E+01  0.51100000000E-03 0. -1.
         11   -1    0    0    0    0 -0.00000000000E+00 -0.00000000000E+00 -0.50000499739E+01  0.50000500000E+01  0.51100000000E-03 0.  1.
         50    1    1    2    0    0 -0.15705570054E-01 -0.10458895834E-01  0.11997877613E-01  0.50000500000E+01  0.50000000000E+01 0.  1.
         50    1    1    2    0    0  0.15705570054E-01  0.10458895834E-01 -0.11997877613E-01  0.50000500000E+01  0.50000000000E+01 0. -1.
</event>
<event>
 4    1  0.4967105E-021  0.5000050E+01  0.7818608E-02  0.2136455E+00
        -11   -1    0    0    0    0  0.00000000000E+00  0.00000000000E+00  0.50000499739E+01  0.50000500000E+01  0.51100000000E-03 0.  1.
         11   -1    0    0    0    0 -0.00000000000E+00 -0.00000000000E+00 -0.50000499739E+01  0.50000500000E+01  0.51100000000E-03 0. -1.
         50    1    1    2    0    0  0.12412001283E-01 -0.14848079165E-01 -0.11201752955E-01  0.50000500000E+01  0.50000000000E+01 0.  0.
         50    1    1    2    0    0 -0.12412001283E-01  0.14848079165E-01  0.11201752955E-01  0.50000500000E+01  0.50000000000E+01 0.  0.
</event>
<event>
 4    1  0.4967105E-021  0.5000050E+01  0.7818608E-02  0.2136455E+00
        -11   -1    0    0    0    0  0.00000000000E+00  0.00000000000E+00  0.50000499739E+01  0.50000500000E+01  0.51100000000E-03 0. -1.
         11   -1    0    0    0    0 -0.00000000000E+00 -0.00000000000E+00 -0.50000499739E+01  0.50000500000E+01  0.51100000000E-03 0.  1.
         50    1    1    2    0    0 -0.13725095380E-01 -0.15430526644E-01 -0.85745614645E-02  0.50000500000E+01  0.50000000000E+01 0.  1.
         50    1    1    2    0    0  0.13725095380E-01  0.15430526644E-01  0.85745614645E-02  0.50000500000E+01  0.50000000000E+01 0. -1.
</event>
<event>
 4    1  0.4967105E-021  0.5000050E+01  0.7818608E-02  0.2136455E+00
        -11   -1    0    0    0    0  0.00000000000E+00  0.00000000000E+00  0.50000499739E+01  0.50000500000E+01  0.51100000000E-03 0.  1.
         11   -1    0    0    0    0 -0.00000000000E+00 -0.00000000000E+00 -0.50000499739E+01  0.50000500000E+01  0.51100000000E-03 0. -1.
         50    1    1    2    0    0 -0.48749894588E-02  0.88662302159E-02 -0.19940585235E-01  0.50000500000E+01  0.50000000000E+01 0. -1.
         50    1    1    2    0    0  0.48749894588E-02 -0.88662302159E-02  0.19940585235E-01  0.50000500000E+01  0.50000000000E+01 0.  0.
</event>
<event>
 4    1  0.4967105E-021  0.5000050E+01  0.7818608E-02  0.2136455E+00
        -11   -1    0    0    0    0  0.00000000000E+00  0.00000000000E+00  0.50000499739E+01  0.50000500000E+01  0.51100000000E-03 0. -1.
         11   -1    0    0    0    0 -0.00000000000E+00 -0.00000000000E+00 -0.50000499739E+01  0.50000500000E+01  0.51100000000E-03 0.  1.
         50    1    1    2    0    0  0.36950223068E-02  0.96159280517E-02  0.19846491827E-01  0.50000500000E+01  0.50000000000E+01 0. -1.
         50    1    1    2    0    0 -0.36950223068E-02 -0.96159280517E-02 -0.19846491827E-01  0.50000500000E+01  0.50000000000E+01 0.  0.
</event>
<event>
 4    1  0.4967105E-021  0.5000050E+01  0.7818608E-02  0.2136455E+00
        -11   -1    0    0    0    0  0.00000000000E+00  0.00000000000E+00  0.50000499739E+01  0.50000500000E+01  0.51100000000E-03 0. -1.
         11   -1    0    0    0    0 -0.00000000000E+00 -0.00000000000E+00 -0.50000499739E+01  0.50000500000E+01  0.51100000000E-03 0.  1.
         50    1    1    2    0    0 -0.47239175597E-02  0.55400786743E-02  0.21142247543E-01  0.50000500000E+01  0.50000000000E+01 0.  0.
         50    1    1    2    0    0  0.47239175597E-02 -0.55400786743E-02 -0.21142247543E-01  0.50000500000E+01  0.50000000000E+01 0.  1.
</event>
<event>
 4    1  0.4967105E-021  0.5000050E+01  0.7818608E-02  0.2136455E+00
        -11   -1    0    0    0    0  0.00000000000E+00  0.00000000000E+00  0.50000499739E+01  0.50000500000E+01  0.51100000000E-03 0. -1.
         11   -1    0    0    0    0 -0.00000000000E+00 -0.00000000000E+00 -0.50000499739E+01  0.50000500000E+01  0.51100000000E-03 0.  1.
         50    1    1    2    0    0  0.17033145300E-02  0.22295114913E-01  0.17050109232E-03  0.50000500000E+01  0.50000000000E+01 0.  1.
         50    1    1    2    0    0 -0.17033145300E-02 -0.22295114913E-01 -0.17050109232E-03  0.50000500000E+01  0.50000000000E+01 0.  0.
</event>
<event>
 4    1  0.4967105E-021  0.5000050E+01  0.7818608E-02  0.2136455E+00
        -11   -1    0    0    0    0  0.00000000000E+00  0.00000000000E+00  0.50000499739E+01  0.50000500000E+01  0.51100000000E-03 0.  1.
         11   -1    0    0    0    0 -0.00000000000E+00 -0.00000000000E+00 -0.50000499739E+01  0.50000500000E+01  0.51100000000E-03 0. -1.
         50    1    1    2    0    0 -0.12634592969E-01 -0.13138967814E-02 -0.18402261702E-01  0.50000500000E+01  0.50000000000E+01 0. -1.
         50    1    1    2    0    0  0.12634592969E-01  0.13138967814E-02  0.18402261702E-01  0.50000500000E+01  0.50000000000E+01 0.  0.
</event>
<event>
 4    1  0.4967105E-021  0.5000050E+01  0.7818608E-02  0.2136455E+00
        -11   -1    0    0    0    0  0.00000000000E+00  0.00000000000E+00  0.50000499739E+01  0.50000500000E+01  0.51100000000E-03 0.  1.
         11   -1    0    0    0    0 -0.00000000000E+00 -0.00000000000E+00 -0.50000499739E+01  0.50000500000E+01  0.51100000000E-03 0. -1.
         50    1    1    2    0    0  0.99286262561E-02  0.16500416772E-01  0.11364907699E-01  0.50000500000E+01  0.50000000000E+01 0.  0.
         50    1    1    2    0    0 -0.99286262561E-02 -0.16500416772E-01 -0.11364907699E-01  0.50000500000E+01  0.50000000000E+01 0.  0.
</event>
<event>
 4    1  0.4967105E-021  0.5000050E+01  0.7818608E-02  0.2136455E+00
        -11   -1    0    0    0    0  0.00000000000E+00  0.00000000000E+00  0.50000499739E+01  0.50000500000E+01  0.51100000000E-03 0.  1.
         11   -1    0    0    0    0 -0.00000000000E+00 -0.00000000000E+00 -0.50000499739E+01  0.50000500000E+01  0.51100000000E-03 0. -1.
         50    1    1    2    0    0 -0.64160079854E-02  0.19814176633E-01  0.81385346265E-02  0.50000500000E+01  0.50000000000E+01 0.  1.
         50    1    1    2    0    0  0.64160079854E-02 -0.19814176633E-01 -0.81385346265E-02  0.50000500000E+01  0.50000000000E+01 0. -1.
</event>
<event>
 4    1  0.4967105E-021  0.5000050E+01  0.7818608E-02  0.2136455E+00
        -11   -1    0    0    0    0  0.00000000000E+00  0.00000000000E+00  0.50000499739E+01  0.50000500000E+01  0.51100000000E-03 0. -1.
         11   -1    0    0    0    0 -0.00000000000E+00 -0.00000000000E+00 -0.50000499739E+01  0.50000500000E+01  0.51100000000E-03 0.  1.
         50    1    1    2    0    0  0.10400608517E-01 -0.58741754908E-02 -0.18903013114E-01  0.50000500000E+01  0.50000000000E+01 0.  0.
         50    1    1    2    0    0 -0.10400608517E-01  0.58741754908E-02  0.18903013114E-01  0.50000500000E+01  0.50000000000E+01 0.  0.
</event>
<event>
 4    1  0.4967105E-021  0.5000050E+01  0.7818608E-02  0.2136455E+00
        -11   -1    0    0    0    0  0.00000000000E+00  0.00000000000E+00  0.50000499739E+01  0.50000500000E+01  0.51100000000E-03 0. -1.
         11   -1    0    0    0    0 -0.00000000000E+00 -0.00000000000E+00 -0.50000499739E+01  0.50000500000E+01  0.51100000000E-03 0.  1.
         50    1    1    2    0    0 -0.14293879715E-01 -0.17195408336E-01  0.73721519620E-04  0.50000500000E+01  0.50000000000E+01 0.  1.
         50    1    1    2    0    0  0.14293879715E-01  0.17195408336E-01 -0.73721519621E-04  0.50000500000E+01  0.50000000000E+01 0. -1.
</event>
<event>
 4    1  0.4967105E-021  0.5000050E+01  0.7818608E-02  0.2136455E+00
        -11   -1    0    0    0    0  0.00000000000E+00  0.00000000000E+00  0.50000499739E+01  0.50000500000E+01  0.51100000000E-03 0. -1.
         11   -1    0    0    0    0 -0.00000000000E+00 -0.00000000000E+00 -0.50000499739E+01  0.50000500000E+01  0.51100000000E-03 0.  1.
         50    1    1    2    0    0 -0.42102080284E-02 -0.20452800940E-01 -0.79974734812E-02  0.50000500000E+01  0.50000000000E+01 0.  1.
         50    1    1    2    0    0  0.42102080284E-02  0.20452800940E-01  0.79974734812E-02  0.50000500000E+01  0.50000000000E+01 0. -1.
</event>
<event>
 4    1  0.4967105E-021  0.5000050E+01  0.7818608E-02  0.2136455E+00
        -11   -1    0    0    0    0  0.00000000000E+00  0.00000000000E+00  0.50000499739E+01  0.50000500000E+01  0.51100000000E-03 0.  1.
         11   -1    0    0    0    0 -0.00000000000E+00 -0.00000000000E+00 -0.50000499739E+01  0.50000500000E+01  0.51100000000E-03 0. -1.
         50    1    1    2    0    0  0.30492031345E-02  0.19251727804E-01  0.10957912065E-01  0.50000500000E+01  0.50000000000E+01 0.  1.
         50    1    1    2    0    0 -0.30492031345E-02 -0.19251727804E-01 -0.10957912065E-01  0.50000500000E+01  0.50000000000E+01 0. -1.
</event>
<event>
 4    1  0.4967105E-021  0.5000050E+01  0.7818608E-02  0.2136455E+00
        -11   -1    0    0    0    0  0.00000000000E+00  0.00000000000E+00  0.50000499739E+01  0.50000500000E+01  0.51100000000E-03 0.  1.
         11   -1    0    0    0    0 -0.00000000000E+00 -0.00000000000E+00 -0.50000499739E+01  0.50000500000E+01  0.51100000000E-03 0. -1.
         50    1    1    2    0    0 -0.11497934764E-01  0.95776709980E-03  0.19154181745E-01  0.50000500000E+01  0.50000000000E+01 0.  1.
         50    1    1    2    0    0  0.11497934764E-01 -0.95776709980E-03 -0.19154181745E-01  0.50000500000E+01  0.50000000000E+01 0.  0.
</event>
<event>
 4    1  0.4967105E-021  0.5000050E+01  0.7818608E-02  0.2136455E+00
        -11   -1    0    0    0    0  0.00000000000E+00  0.00000000000E+00  0.50000499739E+01  0.50000500000E+01  0.51100000000E-03 0.  1.
         11   -1    0    0    0    0 -0.00000000000E+00 -0.00000000000E+00 -0.50000499739E+01  0.50000500000E+01  0.51100000000E-03 0. -1.
         50    1    1    2    0    0 -0.13516189337E-01 -0.15469656303E-01  0.88320359866E-02  0.50000500000E+01  0.50000000000E+01 0.  1.
         50    1    1    2    0    0  0.13516189337E-01  0.15469656303E-01 -0.88320359866E-02  0.50000500000E+01  0.50000000000E+01 0. -1.
</event>
<event>
 4    1  0.4967105E-021  0.5000050E+01  0.7818608E-02  0.2136455E+00
        -11   -1    0    0    0    0  0.00000000000E+00  0.00000000000E+00  0.50000499739E+01  0.50000500000E+01  0.51100000000E-03 0. -1.
         11   -1    0    0    0    0 -0.00000000000E+00 -0.00000000000E+00 -0.50000499739E+01  0.50000500000E+01  0.51100000000E-03 0.  1.
         50    1    1    2    0    0  0.20165262237E-01  0.88045127873E-02  0.39806096893E-02  0.50000500000E+01  0.50000000000E+01 0. -1.
         50    1    1    2    0    0 -0.20165262237E-01 -0.88045127873E-02 -0.39806096893E-02  0.50000500000E+01  0.50000000000E+01 0.  0.
</event>
<event>
 4    1  0.4967105E-021  0.5000050E+01  0.7818608E-02  0.2136455E+00
        -11   -1    0    0    0    0  0.00000000000E+00  0.00000000000E+00  0.50000499739E+01  0.50000500000E+01  0.51100000000E-03 0. -1.
         11   -1    0    0    0    0 -0.00000000000E+00 -0.00000000000E+00 -0.50000499739E+01  0.50000500000E+01  0.51100000000E-03 0.  1.
         50    1    1    2    0    0  0.15193343548E-01  0.13409707495E-01  0.94522249618E-02  0.50000500000E+01  0.50000000000E+01 0.  0.
         50    1    1    2    0    0 -0.15193343548E-01 -0.13409707495E-01 -0.94522249618E-02  0.50000500000E+01  0.50000000000E+01 0. -1.
</event>
<event>
 4    1  0.4967105E-021  0.5000050E+01  0.7818608E-02  0.2136455E+00
        -11   -1    0    0    0    0  0.00000000000E+00  0.00000000000E+00  0.50000499739E+01  0.50000500000E+01  0.51100000000E-03 0.  1.
         11   -1    0    0    0    0 -0.00000000000E+00 -0.00000000000E+00 -0.50000499739E+01  0.50000500000E+01  0.51100000000E-03 0. -1.
         50    1    1    2    0    0 -0.69355595732E-02 -0.14248734633E-01  0.15775743239E-01  0.50000500000E+01  0.50000000000E+01 0.  0.
         50    1    1    2    0    0  0.69355595732E-02  0.14248734633E-01 -0.15775743239E-01  0.50000500000E+01  0.50000000000E+01 0.  0.
</event>
<event>
 4    1  0.4967105E-021  0.5000050E+01  0.7818608E-02  0.2136455E+00
        -11   -1    0    0    0    0  0.00000000000E+00  0.00000000000E+00  0.50000499739E+01  0.50000500000E+01  0.51100000000E-03 0. -1.
         11   -1    0    0    0    0 -0.00000000000E+00 -0.00000000000E+00 -0.50000499739E+01  0.50000500000E+01  0.51100000000E-03 0.  1.
         50    1    1    2    0    0 -0.21414757180E-01 -0.63890608751E-02 -0.76848944940E-03  0.50000500000E+01  0.50000000000E+01 0.  0.
         50    1    1    2    0    0  0.21414757180E-01  0.63890608751E-02  0.76848944940E-03  0.50000500000E+01  0.50000000000E+01 0. -1.
</event>
<event>
 4    1  0.4967105E-021  0.5000050E+01  0.7818608E-02  0.2136455E+00
        -11   -1    0    0    0    0  0.00000000000E+00  0.00000000000E+00  0.50000499739E+01  0.50000500000E+01  0.51100000000E-03 0. -1.
         11   -1    0    0    0    0 -0.00000000000E+00 -0.00000000000E+00 -0.50000499739E+01  0.50000500000E+01  0.51100000000E-03 0.  1.
         50    1    1    2    0    0 -0.17196115589E-01 -0.84350309635E-02 -0.11538906416E-01  0.50000500000E+01  0.50000000000E+01 0. -1.
         50    1    1    2    0    0  0.17196115589E-01  0.84350309635E-02  0.11538906416E-01  0.50000500000E+01  0.50000000000E+01 0.  0.
</event>
<event>
 4    1  0.4967105E-021  0.5000050E+01  0.7818608E-02  0.2136455E+00
        -11   -1    0    0    0    0  0.00000000000E+00  0.00000000000E+00  0.50000499739E+01  0.50000500000E+01  0.51100000000E-03 0.  1.
         11   -1    0    0    0    0 -0.00000000000E+00 -0.00000000000E+00 -0.50000499739E+01  0.50000500000E+01  0.51100000000E-03 0. -1.
         50    1    1    2    0    0 -0.12247232915E-01  0.15136792001E-01  0.10994785757E-01  0.50000500000E+01  0.50000000000E+01 0.  1.
         50    1    1    2    0    0  0.12247232915E-01 -0.15136792001E-01 -0.10994785757E-01  0.50000500000E+01  0.50000000000E+01 0. -1.
</event>
<event>
 4    1  0.4967105E-021  0.5000050E+01  0.7818608E-02  0.2136455E+00
        -11   -1    0    0    0    0  0.00000000000E+00  0.00000000000E+00  0.50000499739E+01  0.50000500000E+01  0.51100000000E-03 0. -1.
         11   -1    0    0    0    0 -0.00000000000E+00 -0.00000000000E+00 -0.50000499739E+01  0.50000500000E+01  0.51100000000E-03 0.  1.
         50    1    1    2    0    0 -0.16852085377E-01 -0.85713863218E-02  0.11939055866E-01  0.50000500000E+01  0.50000000000E+01 0.  1.
         50    1    1    2    0    0  0.16852085377E-01  0.85713863218E-02 -0.11939055866E-01  0.50000500000E+01  0.50000000000E+01 0.  0.
</event>
<event>
 4    1  0.4967105E-021  0.5000050E+01  0.7818608E-02  0.2136455E+00
        -11   -1    0    0    0    0  0.00000000000E+00  0.00000000000E+00  0.50000499739E+01  0.50000500000E+01  0.51100000000E-03 0. -1.
         11   -1    0    0    0    0 -0.00000000000E+00 -0.00000000000E+00 -0.50000499739E+01  0.50000500000E+01  0.51100000000E-03 0.  1.
         50    1    1    2    0    0 -0.82597729419E-02  0.20273095355E-01  0.45585365709E-02  0.50000500000E+01  0.50000000000E+01 0. -1.
         50    1    1    2    0    0  0.82597729419E-02 -0.20273095355E-01 -0.45585365709E-02  0.50000500000E+01  0.50000000000E+01 0.  1.
</event>
<event>
 4    1  0.1755208E-020  0.5000050E+01  0.7818608E-02  0.2136455E+00
        -11   -1    0    0    0    0  0.00000000000E+00  0.00000000000E+00  0.50000499739E+01  0.50000500000E+01  0.51100000000E-03 0. -1.
         11   -1    0    0    0    0 -0.00000000000E+00 -0.00000000000E+00 -0.50000499739E+01  0.50000500000E+01  0.51100000000E-03 0.  1.
         50    1    1    2    0    0  0.60921344164E-03  0.31446857371E-02  0.22130122245E-01  0.50000500000E+01  0.50000000000E+01 0. -1.
         50    1    1    2    0    0 -0.60921344164E-03 -0.31446857371E-02 -0.22130122245E-01  0.50000500000E+01  0.50000000000E+01 0.  0.
</event>
<event>
 4    1  0.4967105E-021  0.5000050E+01  0.7818608E-02  0.2136455E+00
        -11   -1    0    0    0    0  0.00000000000E+00  0.00000000000E+00  0.50000499739E+01  0.50000500000E+01  0.51100000000E-03 0.  1.
         11   -1    0    0    0    0 -0.00000000000E+00 -0.00000000000E+00 -0.50000499739E+01  0.50000500000E+01  0.51100000000E-03 0. -1.
         50    1    1    2    0    0  0.20124165521E-01  0.84428646351E-02 -0.48722170329E-02  0.50000500000E+01  0.50000000000E+01 0.  0.
         50    1    1    2    0    0 -0.20124165521E-01 -0.84428646351E-02  0.48722170329E-02  0.50000500000E+01  0.50000000000E+01 0. -1.
</event>
<event>
 4    1  0.4967105E-021  0.5000050E+01  0.7818608E-02  0.2136455E+00
        -11   -1    0    0    0    0  0.00000000000E+00  0.00000000000E+00  0.50000499739E+01  0.50000500000E+01  0.51100000000E-03 0.  1.
         11   -1    0    0    0    0 -0.00000000000E+00 -0.00000000000E+00 -0.50000499739E+01  0.50000500000E+01  0.51100000000E-03 0. -1.
         50    1    1    2    0    0 -0.22020912760E-02 -0.43684382485E-02 -0.21819029339E-01  0.50000500000E+01  0.50000000000E+01 0. -1.
         50    1    1    2    0    0  0.22020912760E-02  0.43684382485E-02  0.21819029339E-01  0.50000500000E+01  0.50000000000E+01 0.  0.
</event>
<event>
 4    1  0.4967105E-021  0.5000050E+01  0.7818608E-02  0.2136455E+00
        -11   -1    0    0    0    0  0.00000000000E+00  0.00000000000E+00  0.50000499739E+01  0.50000500000E+01  0.51100000000E-03 0.  1.
         11   -1    0    0    0    0 -0.00000000000E+00 -0.00000000000E+00 -0.50000499739E+01  0.50000500000E+01  0.51100000000E-03 0. -1.
         50    1    1    2    0    0  0.82466376249E-02 -0.16029598353E-01 -0.13230549669E-01  0.50000500000E+01  0.50000000000E+01 0. -1.
         50    1    1    2    0    0 -0.82466376249E-02  0.16029598353E-01  0.13230549669E-01  0.50000500000E+01  0.50000000000E+01 0.  1.
</event>
<event>
 4    1  0.4967105E-021  0.5000050E+01  0.7818608E-02  0.2136455E+00
        -11   -1    0    0    0    0  0.00000000000E+00  0.00000000000E+00  0.50000499739E+01  0.50000500000E+01  0.51100000000E-03 0.  1.
         11   -1    0    0    0    0 -0.00000000000E+00 -0.00000000000E+00 -0.50000499739E+01  0.50000500000E+01  0.51100000000E-03 0. -1.
         50    1    1    2    0    0  0.24467141579E-03 -0.61540527777E-02  0.21495819833E-01  0.50000500000E+01  0.50000000000E+01 0.  1.
         50    1    1    2    0    0 -0.24467141579E-03  0.61540527777E-02 -0.21495819833E-01  0.50000500000E+01  0.50000000000E+01 0.  0.
</event>
<event>
 4    1  0.4967105E-021  0.5000050E+01  0.7818608E-02  0.2136455E+00
        -11   -1    0    0    0    0  0.00000000000E+00  0.00000000000E+00  0.50000499739E+01  0.50000500000E+01  0.51100000000E-03 0.  1.
         11   -1    0    0    0    0 -0.00000000000E+00 -0.00000000000E+00 -0.50000499739E+01  0.50000500000E+01  0.51100000000E-03 0. -1.
         50    1    1    2    0    0  0.42778924815E-02  0.62154502840E-02  0.21049235465E-01  0.50000500000E+01  0.50000000000E+01 0.  0.
         50    1    1    2    0    0 -0.42778924815E-02 -0.62154502840E-02 -0.21049235465E-01  0.50000500000E+01  0.50000000000E+01 0. -1.
</event>
<event>
 4    1  0.4967105E-021  0.5000050E+01  0.7818608E-02  0.2136455E+00
        -11   -1    0    0    0    0  0.00000000000E+00  0.00000000000E+00  0.50000499739E+01  0.50000500000E+01  0.51100000000E-03 0. -1.
         11   -1    0    0    0    0 -0.00000000000E+00 -0.00000000000E+00 -0.50000499739E+01  0.50000500000E+01  0.51100000000E-03 0.  1.
         50    1    1    2    0    0  0.20350822757E-01  0.90892993539E-02 -0.17975400883E-02  0.50000500000E+01  0.50000000000E+01 0.  0.
         50    1    1    2    0    0 -0.20350822757E-01 -0.90892993539E-02  0.17975400883E-02  0.50000500000E+01  0.50000000000E+01 0. -1.
</event>
<event>
 4    1  0.4967105E-021  0.5000050E+01  0.7818608E-02  0.2136455E+00
        -11   -1    0    0    0    0  0.00000000000E+00  0.00000000000E+00  0.50000499739E+01  0.50000500000E+01  0.51100000000E-03 0.  1.
         11   -1    0    0    0    0 -0.00000000000E+00 -0.00000000000E+00 -0.50000499739E+01  0.50000500000E+01  0.51100000000E-03 0. -1.
         50    1    1    2    0    0  0.54986072579E-02  0.17432790722E-01 -0.12878882943E-01  0.50000500000E+01  0.50000000000E+01 0.  1.
         50    1    1    2    0    0 -0.54986072579E-02 -0.17432790722E-01  0.12878882943E-01  0.50000500000E+01  0.50000000000E+01 0.  0.
</event>
<event>
 4    1  0.4967105E-021  0.5000050E+01  0.7818608E-02  0.2136455E+00
        -11   -1    0    0    0    0  0.00000000000E+00  0.00000000000E+00  0.50000499739E+01  0.50000500000E+01  0.51100000000E-03 0. -1.
         11   -1    0    0    0    0 -0.00000000000E+00 -0.00000000000E+00 -0.50000499739E+01  0.50000500000E+01  0.51100000000E-03 0.  1.
         50    1    1    2    0    0 -0.16483925910E-01 -0.14975186171E-01 -0.20066105090E-02  0.50000500000E+01  0.50000000000E+01 0. -1.
         50    1    1    2    0    0  0.16483925910E-01  0.14975186171E-01  0.20066105090E-02  0.50000500000E+01  0.50000000000E+01 0.  1.
</event>
<event>
 4    1  0.4967105E-021  0.5000050E+01  0.7818608E-02  0.2136455E+00
        -11   -1    0    0    0    0  0.00000000000E+00  0.00000000000E+00  0.50000499739E+01  0.50000500000E+01  0.51100000000E-03 0.  1.
         11   -1    0    0    0    0 -0.00000000000E+00 -0.00000000000E+00 -0.50000499739E+01  0.50000500000E+01  0.51100000000E-03 0. -1.
         50    1    1    2    0    0  0.20501411293E-01  0.89083318096E-02  0.57987875390E-03  0.50000500000E+01  0.50000000000E+01 0.  0.
         50    1    1    2    0    0 -0.20501411293E-01 -0.89083318096E-02 -0.57987875390E-03  0.50000500000E+01  0.50000000000E+01 0. -1.
</event>
<event>
 4    1  0.4967105E-021  0.5000050E+01  0.7818608E-02  0.2136455E+00
        -11   -1    0    0    0    0  0.00000000000E+00  0.00000000000E+00  0.50000499739E+01  0.50000500000E+01  0.51100000000E-03 0.  1.
         11   -1    0    0    0    0 -0.00000000000E+00 -0.00000000000E+00 -0.50000499739E+01  0.50000500000E+01  0.51100000000E-03 0. -1.
         50    1    1    2    0    0  0.10169310033E-01 -0.19724933705E-01 -0.27412814134E-02  0.50000500000E+01  0.50000000000E+01 0.  0.
         50    1    1    2    0    0 -0.10169310033E-01  0.19724933705E-01  0.27412814134E-02  0.50000500000E+01  0.50000000000E+01 0. -1.
</event>
<event>
 4    1  0.4967105E-021  0.5000050E+01  0.7818608E-02  0.2136455E+00
        -11   -1    0    0    0    0  0.00000000000E+00  0.00000000000E+00  0.50000499739E+01  0.50000500000E+01  0.51100000000E-03 0.  1.
         11   -1    0    0    0    0 -0.00000000000E+00 -0.00000000000E+00 -0.50000499739E+01  0.50000500000E+01  0.51100000000E-03 0. -1.
         50    1    1    2    0    0  0.28399200521E-02  0.21681437647E-01 -0.46746781358E-02  0.50000500000E+01  0.50000000000E+01 0. -1.
         50    1    1    2    0    0 -0.28399200521E-02 -0.21681437647E-01  0.46746781358E-02  0.50000500000E+01  0.50000000000E+01 0.  1.
</event>
<event>
 4    1  0.4967105E-021  0.5000050E+01  0.7818608E-02  0.2136455E+00
        -11   -1    0    0    0    0  0.00000000000E+00  0.00000000000E+00  0.50000499739E+01  0.50000500000E+01  0.51100000000E-03 0.  1.
         11   -1    0    0    0    0 -0.00000000000E+00 -0.00000000000E+00 -0.50000499739E+01  0.50000500000E+01  0.51100000000E-03 0. -1.
         50    1    1    2    0    0 -0.15246729302E-01  0.15665541483E-01  0.47043124502E-02  0.50000500000E+01  0.50000000000E+01 0. -1.
         50    1    1    2    0    0  0.15246729302E-01 -0.15665541483E-01 -0.47043124502E-02  0.50000500000E+01  0.50000000000E+01 0.  0.
</event>
<event>
 4    1  0.4967105E-021  0.5000050E+01  0.7818608E-02  0.2136455E+00
        -11   -1    0    0    0    0  0.00000000000E+00  0.00000000000E+00  0.50000499739E+01  0.50000500000E+01  0.51100000000E-03 0.  1.
         11   -1    0    0    0    0 -0.00000000000E+00 -0.00000000000E+00 -0.50000499739E+01  0.50000500000E+01  0.51100000000E-03 0. -1.
         50    1    1    2    0    0 -0.19244710056E-01 -0.97688879922E-02  0.58491420090E-02  0.50000500000E+01  0.50000000000E+01 0.  1.
         50    1    1    2    0    0  0.19244710056E-01  0.97688879922E-02 -0.58491420090E-02  0.50000500000E+01  0.50000000000E+01 0. -1.
</event>
<event>
 4    1  0.4967105E-021  0.5000050E+01  0.7818608E-02  0.2136455E+00
        -11   -1    0    0    0    0  0.00000000000E+00  0.00000000000E+00  0.50000499739E+01  0.50000500000E+01  0.51100000000E-03 0. -1.
         11   -1    0    0    0    0 -0.00000000000E+00 -0.00000000000E+00 -0.50000499739E+01  0.50000500000E+01  0.51100000000E-03 0.  1.
         50    1    1    2    0    0 -0.21647250764E-01 -0.55880023406E-02 -0.41625016221E-03  0.50000500000E+01  0.50000000000E+01 0.  0.
         50    1    1    2    0    0  0.21647250764E-01  0.55880023406E-02  0.41625016221E-03  0.50000500000E+01  0.50000000000E+01 0. -1.
</event>
<event>
 4    1  0.4967105E-021  0.5000050E+01  0.7818608E-02  0.2136455E+00
        -11   -1    0    0    0    0  0.00000000000E+00  0.00000000000E+00  0.50000499739E+01  0.50000500000E+01  0.51100000000E-03 0. -1.
         11   -1    0    0    0    0 -0.00000000000E+00 -0.00000000000E+00 -0.50000499739E+01  0.50000500000E+01  0.51100000000E-03 0.  1.
         50    1    1    2    0    0 -0.13925925431E-01  0.45000038626E-02  0.16906243406E-01  0.50000500000E+01  0.50000000000E+01 0. -1.
         50    1    1    2    0    0  0.13925925431E-01 -0.45000038626E-02 -0.16906243406E-01  0.50000500000E+01  0.50000000000E+01 0.  1.
</event>
<event>
 4    1  0.4967105E-021  0.5000050E+01  0.7818608E-02  0.2136455E+00
        -11   -1    0    0    0    0  0.00000000000E+00  0.00000000000E+00  0.50000499739E+01  0.50000500000E+01  0.51100000000E-03 0.  1.
         11   -1    0    0    0    0 -0.00000000000E+00 -0.00000000000E+00 -0.50000499739E+01  0.50000500000E+01  0.51100000000E-03 0. -1.
         50    1    1    2    0    0  0.29251918476E-02  0.16717382705E-01 -0.14559356721E-01  0.50000500000E+01  0.50000000000E+01 0.  1.
         50    1    1    2    0    0 -0.29251918476E-02 -0.16717382705E-01  0.14559356721E-01  0.50000500000E+01  0.50000000000E+01 0.  1.
</event>
<event>
 4    1  0.4967105E-021  0.5000050E+01  0.7818608E-02  0.2136455E+00
        -11   -1    0    0    0    0  0.00000000000E+00  0.00000000000E+00  0.50000499739E+01  0.50000500000E+01  0.51100000000E-03 0.  1.
         11   -1    0    0    0    0 -0.00000000000E+00 -0.00000000000E+00 -0.50000499739E+01  0.50000500000E+01  0.51100000000E-03 0. -1.
         50    1    1    2    0    0 -0.15575399963E-01 -0.11041955317E-02  0.16005941654E-01  0.50000500000E+01  0.50000000000E+01 0.  0.
         50    1    1    2    0    0  0.15575399963E-01  0.11041955317E-02 -0.16005941654E-01  0.50000500000E+01  0.50000000000E+01 0.  0.
</event>
<event>
 4    1  0.4967105E-021  0.5000050E+01  0.7818608E-02  0.2136455E+00
        -11   -1    0    0    0    0  0.00000000000E+00  0.00000000000E+00  0.50000499739E+01  0.50000500000E+01  0.51100000000E-03 0.  1.
         11   -1    0    0    0    0 -0.00000000000E+00 -0.00000000000E+00 -0.50000499739E+01  0.50000500000E+01  0.51100000000E-03 0. -1.
         50    1    1    2    0    0 -0.11859198092E-01 -0.14969203765E-01 -0.11631201970E-01  0.50000500000E+01  0.50000000000E+01 0.  0.
         50    1    1    2    0    0  0.11859198092E-01  0.14969203765E-01  0.11631201970E-01  0.50000500000E+01  0.50000000000E+01 0.  0.
</event>
<event>
 4    1  0.4967105E-021  0.5000050E+01  0.7818608E-02  0.2136455E+00
        -11   -1    0    0    0    0  0.00000000000E+00  0.00000000000E+00  0.50000499739E+01  0.50000500000E+01  0.51100000000E-03 0.  1.
         11   -1    0    0    0    0 -0.00000000000E+00 -0.00000000000E+00 -0.50000499739E+01  0.50000500000E+01  0.51100000000E-03 0. -1.
         50    1    1    2    0    0 -0.18879050864E-01  0.11945154264E-01 -0.94722124288E-03  0.50000500000E+01  0.50000000000E+01 0.  1.
         50    1    1    2    0    0  0.18879050864E-01 -0.11945154264E-01  0.94722124288E-03  0.50000500000E+01  0.50000000000E+01 0.  0.
</event>
<event>
 4    1  0.4967105E-021  0.5000050E+01  0.7818608E-02  0.2136455E+00
        -11   -1    0    0    0    0  0.00000000000E+00  0.00000000000E+00  0.50000499739E+01  0.50000500000E+01  0.51100000000E-03 0. -1.
         11   -1    0    0    0    0 -0.00000000000E+00 -0.00000000000E+00 -0.50000499739E+01  0.50000500000E+01  0.51100000000E-03 0.  1.
         50    1    1    2    0    0  0.10230962786E-01  0.18860441540E-01  0.62939371936E-02  0.50000500000E+01  0.50000000000E+01 0.  0.
         50    1    1    2    0    0 -0.10230962786E-01 -0.18860441540E-01 -0.62939371936E-02  0.50000500000E+01  0.50000000000E+01 0. -1.
</event>
<event>
 4    1  0.4967105E-021  0.5000050E+01  0.7818608E-02  0.2136455E+00
        -11   -1    0    0    0    0  0.00000000000E+00  0.00000000000E+00  0.50000499739E+01  0.50000500000E+01  0.51100000000E-03 0.  1.
         11   -1    0    0    0    0 -0.00000000000E+00 -0.00000000000E+00 -0.50000499739E+01  0.50000500000E+01  0.51100000000E-03 0. -1.
         50    1    1    2    0    0 -0.17996980628E-01  0.65162797509E-03  0.13254681031E-01  0.50000500000E+01  0.50000000000E+01 0.  1.
         50    1    1    2    0    0  0.17996980628E-01 -0.65162797509E-03 -0.13254681031E-01  0.50000500000E+01  0.50000000000E+01 0. -1.
</event>
<event>
 4    1  0.4967105E-021  0.5000050E+01  0.7818608E-02  0.2136455E+00
        -11   -1    0    0    0    0  0.00000000000E+00  0.00000000000E+00  0.50000499739E+01  0.50000500000E+01  0.51100000000E-03 0.  1.
         11   -1    0    0    0    0 -0.00000000000E+00 -0.00000000000E+00 -0.50000499739E+01  0.50000500000E+01  0.51100000000E-03 0. -1.
         50    1    1    2    0    0  0.18027467497E-01 -0.89839516441E-02 -0.97108974103E-02  0.50000500000E+01  0.50000000000E+01 0. -1.
         50    1    1    2    0    0 -0.18027467497E-01  0.89839516441E-02  0.97108974103E-02  0.50000500000E+01  0.50000000000E+01 0.  1.
</event>
<event>
 4    1  0.4967105E-021  0.5000050E+01  0.7818608E-02  0.2136455E+00
        -11   -1    0    0    0    0  0.00000000000E+00  0.00000000000E+00  0.50000499739E+01  0.50000500000E+01  0.51100000000E-03 0. -1.
         11   -1    0    0    0    0 -0.00000000000E+00 -0.00000000000E+00 -0.50000499739E+01  0.50000500000E+01  0.51100000000E-03 0.  1.
         50    1    1    2    0    0  0.18616363292E-01 -0.79609148072E-02  0.94898552794E-02  0.50000500000E+01  0.50000000000E+01 0.  0.
         50    1    1    2    0    0 -0.18616363292E-01  0.79609148072E-02 -0.94898552794E-02  0.50000500000E+01  0.50000000000E+01 0. -1.
</event>
<event>
 4    1  0.4967105E-021  0.5000050E+01  0.7818608E-02  0.2136455E+00
        -11   -1    0    0    0    0  0.00000000000E+00  0.00000000000E+00  0.50000499739E+01  0.50000500000E+01  0.51100000000E-03 0. -1.
         11   -1    0    0    0    0 -0.00000000000E+00 -0.00000000000E+00 -0.50000499739E+01  0.50000500000E+01  0.51100000000E-03 0.  1.
         50    1    1    2    0    0 -0.41857668098E-02  0.87460807607E-02  0.20149142104E-01  0.50000500000E+01  0.50000000000E+01 0. -1.
         50    1    1    2    0    0  0.41857668098E-02 -0.87460807607E-02 -0.20149142104E-01  0.50000500000E+01  0.50000000000E+01 0.  1.
</event>
<event>
 4    1  0.4967105E-021  0.5000050E+01  0.7818608E-02  0.2136455E+00
        -11   -1    0    0    0    0  0.00000000000E+00  0.00000000000E+00  0.50000499739E+01  0.50000500000E+01  0.51100000000E-03 0.  1.
         11   -1    0    0    0    0 -0.00000000000E+00 -0.00000000000E+00 -0.50000499739E+01  0.50000500000E+01  0.51100000000E-03 0. -1.
         50    1    1    2    0    0 -0.19627663298E-01 -0.67225673810E-02 -0.83405288372E-02  0.50000500000E+01  0.50000000000E+01 0.  1.
         50    1    1    2    0    0  0.19627663298E-01  0.67225673810E-02  0.83405288372E-02  0.50000500000E+01  0.50000000000E+01 0. -1.
</event>
<event>
 4    1  0.4967105E-021  0.5000050E+01  0.7818608E-02  0.2136455E+00
        -11   -1    0    0    0    0  0.00000000000E+00  0.00000000000E+00  0.50000499739E+01  0.50000500000E+01  0.51100000000E-03 0. -1.
         11   -1    0    0    0    0 -0.00000000000E+00 -0.00000000000E+00 -0.50000499739E+01  0.50000500000E+01  0.51100000000E-03 0.  1.
         50    1    1    2    0    0  0.54789396661E-02  0.18618769962E-01 -0.11105184610E-01  0.50000500000E+01  0.50000000000E+01 0.  0.
         50    1    1    2    0    0 -0.54789396661E-02 -0.18618769962E-01  0.11105184610E-01  0.50000500000E+01  0.50000000000E+01 0.  0.
</event>
<event>
 4    1  0.4967105E-021  0.5000050E+01  0.7818608E-02  0.2136455E+00
        -11   -1    0    0    0    0  0.00000000000E+00  0.00000000000E+00  0.50000499739E+01  0.50000500000E+01  0.51100000000E-03 0. -1.
         11   -1    0    0    0    0 -0.00000000000E+00 -0.00000000000E+00 -0.50000499739E+01  0.50000500000E+01  0.51100000000E-03 0.  1.
         50    1    1    2    0    0  0.11034806211E-01 -0.58991109020E-02 -0.18532027478E-01  0.50000500000E+01  0.50000000000E+01 0. -1.
         50    1    1    2    0    0 -0.11034806211E-01  0.58991109020E-02  0.18532027478E-01  0.50000500000E+01  0.50000000000E+01 0. -1.
</event>
<event>
 4    1  0.4967105E-021  0.5000050E+01  0.7818608E-02  0.2136455E+00
        -11   -1    0    0    0    0  0.00000000000E+00  0.00000000000E+00  0.50000499739E+01  0.50000500000E+01  0.51100000000E-03 0. -1.
         11   -1    0    0    0    0 -0.00000000000E+00 -0.00000000000E+00 -0.50000499739E+01  0.50000500000E+01  0.51100000000E-03 0.  1.
         50    1    1    2    0    0  0.19432565965E-01  0.63315712880E-02  0.90713331455E-02  0.50000500000E+01  0.50000000000E+01 0. -1.
         50    1    1    2    0    0 -0.19432565965E-01 -0.63315712880E-02 -0.90713331455E-02  0.50000500000E+01  0.50000000000E+01 0.  1.
</event>
<event>
 4    1  0.4967105E-021  0.5000050E+01  0.7818608E-02  0.2136455E+00
        -11   -1    0    0    0    0  0.00000000000E+00  0.00000000000E+00  0.50000499739E+01  0.50000500000E+01  0.51100000000E-03 0.  1.
         11   -1    0    0    0    0 -0.00000000000E+00 -0.00000000000E+00 -0.50000499739E+01  0.50000500000E+01  0.51100000000E-03 0. -1.
         50    1    1    2    0    0  0.19867789890E-01 -0.10177672231E-01 -0.12993894061E-02  0.50000500000E+01  0.50000000000E+01 0. -1.
         50    1    1    2    0    0 -0.19867789890E-01  0.10177672231E-01  0.12993894061E-02  0.50000500000E+01  0.50000000000E+01 0.  1.
</event>
<event>
 4    1  0.4967105E-021  0.5000050E+01  0.7818608E-02  0.2136455E+00
        -11   -1    0    0    0    0  0.00000000000E+00  0.00000000000E+00  0.50000499739E+01  0.50000500000E+01  0.51100000000E-03 0. -1.
         11   -1    0    0    0    0 -0.00000000000E+00 -0.00000000000E+00 -0.50000499739E+01  0.50000500000E+01  0.51100000000E-03 0.  1.
         50    1    1    2    0    0 -0.57283295267E-02  0.10384038281E-01  0.18956805897E-01  0.50000500000E+01  0.50000000000E+01 0.  0.
         50    1    1    2    0    0  0.57283295267E-02 -0.10384038281E-01 -0.18956805897E-01  0.50000500000E+01  0.50000000000E+01 0.  0.
</event>
<event>
 4    1  0.4967105E-021  0.5000050E+01  0.7818608E-02  0.2136455E+00
        -11   -1    0    0    0    0  0.00000000000E+00  0.00000000000E+00  0.50000499739E+01  0.50000500000E+01  0.51100000000E-03 0. -1.
         11   -1    0    0    0    0 -0.00000000000E+00 -0.00000000000E+00 -0.50000499739E+01  0.50000500000E+01  0.51100000000E-03 0.  1.
         50    1    1    2    0    0  0.94377417556E-02 -0.20087459989E-01  0.27249737114E-02  0.50000500000E+01  0.50000000000E+01 0.  1.
         50    1    1    2    0    0 -0.94377417556E-02  0.20087459989E-01 -0.27249737114E-02  0.50000500000E+01  0.50000000000E+01 0. -1.
</event>
<event>
 4    1  0.4967105E-021  0.5000050E+01  0.7818608E-02  0.2136455E+00
        -11   -1    0    0    0    0  0.00000000000E+00  0.00000000000E+00  0.50000499739E+01  0.50000500000E+01  0.51100000000E-03 0.  1.
         11   -1    0    0    0    0 -0.00000000000E+00 -0.00000000000E+00 -0.50000499739E+01  0.50000500000E+01  0.51100000000E-03 0. -1.
         50    1    1    2    0    0 -0.18604643885E-01 -0.24108299129E-02  0.12167893204E-01  0.50000500000E+01  0.50000000000E+01 0.  1.
         50    1    1    2    0    0  0.18604643885E-01  0.24108299129E-02 -0.12167893204E-01  0.50000500000E+01  0.50000000000E+01 0. -1.
</event>
<event>
 4    1  0.4967105E-021  0.5000050E+01  0.7818608E-02  0.2136455E+00
        -11   -1    0    0    0    0  0.00000000000E+00  0.00000000000E+00  0.50000499739E+01  0.50000500000E+01  0.51100000000E-03 0.  1.
         11   -1    0    0    0    0 -0.00000000000E+00 -0.00000000000E+00 -0.50000499739E+01  0.50000500000E+01  0.51100000000E-03 0. -1.
         50    1    1    2    0    0  0.14251658446E-01 -0.16857826214E-01  0.35646075313E-02  0.50000500000E+01  0.50000000000E+01 0. -1.
         50    1    1    2    0    0 -0.14251658446E-01  0.16857826214E-01 -0.35646075313E-02  0.50000500000E+01  0.50000000000E+01 0.  1.
</event>
<event>
 4    1  0.4967105E-021  0.5000050E+01  0.7818608E-02  0.2136455E+00
        -11   -1    0    0    0    0  0.00000000000E+00  0.00000000000E+00  0.50000499739E+01  0.50000500000E+01  0.51100000000E-03 0. -1.
         11   -1    0    0    0    0 -0.00000000000E+00 -0.00000000000E+00 -0.50000499739E+01  0.50000500000E+01  0.51100000000E-03 0.  1.
         50    1    1    2    0    0 -0.14505151636E-02 -0.58552244919E-02  0.21531717347E-01  0.50000500000E+01  0.50000000000E+01 0.  0.
         50    1    1    2    0    0  0.14505151636E-02  0.58552244919E-02 -0.21531717347E-01  0.50000500000E+01  0.50000000000E+01 0.  1.
</event>
<event>
 4    1  0.4967105E-021  0.5000050E+01  0.7818608E-02  0.2136455E+00
        -11   -1    0    0    0    0  0.00000000000E+00  0.00000000000E+00  0.50000499739E+01  0.50000500000E+01  0.51100000000E-03 0. -1.
         11   -1    0    0    0    0 -0.00000000000E+00 -0.00000000000E+00 -0.50000499739E+01  0.50000500000E+01  0.51100000000E-03 0.  1.
         50    1    1    2    0    0  0.19500094814E-01 -0.18787161232E-02  0.10780502212E-01  0.50000500000E+01  0.50000000000E+01 0. -1.
         50    1    1    2    0    0 -0.19500094814E-01  0.18787161232E-02 -0.10780502212E-01  0.50000500000E+01  0.50000000000E+01 0. -1.
</event>
<event>
 4    1  0.4967105E-021  0.5000050E+01  0.7818608E-02  0.2136455E+00
        -11   -1    0    0    0    0  0.00000000000E+00  0.00000000000E+00  0.50000499739E+01  0.50000500000E+01  0.51100000000E-03 0.  1.
         11   -1    0    0    0    0 -0.00000000000E+00 -0.00000000000E+00 -0.50000499739E+01  0.50000500000E+01  0.51100000000E-03 0. -1.
         50    1    1    2    0    0 -0.86535988937E-02  0.17556839087E-01  0.10810880050E-01  0.50000500000E+01  0.50000000000E+01 0.  1.
         50    1    1    2    0    0  0.86535988937E-02 -0.17556839087E-01 -0.10810880050E-01  0.50000500000E+01  0.50000000000E+01 0. -1.
</event>
<event>
 4    1  0.4967105E-021  0.5000050E+01  0.7818608E-02  0.2136455E+00
        -11   -1    0    0    0    0  0.00000000000E+00  0.00000000000E+00  0.50000499739E+01  0.50000500000E+01  0.51100000000E-03 0.  1.
         11   -1    0    0    0    0 -0.00000000000E+00 -0.00000000000E+00 -0.50000499739E+01  0.50000500000E+01  0.51100000000E-03 0. -1.
         50    1    1    2    0    0 -0.19717457600E-01 -0.66833690325E-02 -0.81582439393E-02  0.50000500000E+01  0.50000000000E+01 0. -1.
         50    1    1    2    0    0  0.19717457600E-01  0.66833690325E-02  0.81582439393E-02  0.50000500000E+01  0.50000000000E+01 0.  1.
</event>
<event>
 4    1  0.4967105E-021  0.5000050E+01  0.7818608E-02  0.2136455E+00
        -11   -1    0    0    0    0  0.00000000000E+00  0.00000000000E+00  0.50000499739E+01  0.50000500000E+01  0.51100000000E-03 0. -1.
         11   -1    0    0    0    0 -0.00000000000E+00 -0.00000000000E+00 -0.50000499739E+01  0.50000500000E+01  0.51100000000E-03 0.  1.
         50    1    1    2    0    0 -0.14957804449E-02  0.97845380135E-02 -0.20050634821E-01  0.50000500000E+01  0.50000000000E+01 0.  1.
         50    1    1    2    0    0  0.14957804449E-02 -0.97845380135E-02  0.20050634821E-01  0.50000500000E+01  0.50000000000E+01 0.  1.
</event>
<event>
 4    1  0.4967105E-021  0.5000050E+01  0.7818608E-02  0.2136455E+00
        -11   -1    0    0    0    0  0.00000000000E+00  0.00000000000E+00  0.50000499739E+01  0.50000500000E+01  0.51100000000E-03 0.  1.
         11   -1    0    0    0    0 -0.00000000000E+00 -0.00000000000E+00 -0.50000499739E+01  0.50000500000E+01  0.51100000000E-03 0. -1.
         50    1    1    2    0    0 -0.83853397332E-02 -0.12829737100E-01  0.16281474857E-01  0.50000500000E+01  0.50000000000E+01 0.  0.
         50    1    1    2    0    0  0.83853397332E-02  0.12829737100E-01 -0.16281474857E-01  0.50000500000E+01  0.50000000000E+01 0. -1.
</event>
<event>
 4    1  0.4967105E-021  0.5000050E+01  0.7818608E-02  0.2136455E+00
        -11   -1    0    0    0    0  0.00000000000E+00  0.00000000000E+00  0.50000499739E+01  0.50000500000E+01  0.51100000000E-03 0. -1.
         11   -1    0    0    0    0 -0.00000000000E+00 -0.00000000000E+00 -0.50000499739E+01  0.50000500000E+01  0.51100000000E-03 0.  1.
         50    1    1    2    0    0  0.86639602114E-02  0.87051869406E-02  0.18685770356E-01  0.50000500000E+01  0.50000000000E+01 0.  0.
         50    1    1    2    0    0 -0.86639602114E-02 -0.87051869406E-02 -0.18685770356E-01  0.50000500000E+01  0.50000000000E+01 0.  0.
</event>
<event>
 4    1  0.4967105E-021  0.5000050E+01  0.7818608E-02  0.2136455E+00
        -11   -1    0    0    0    0  0.00000000000E+00  0.00000000000E+00  0.50000499739E+01  0.50000500000E+01  0.51100000000E-03 0.  1.
         11   -1    0    0    0    0 -0.00000000000E+00 -0.00000000000E+00 -0.50000499739E+01  0.50000500000E+01  0.51100000000E-03 0. -1.
         50    1    1    2    0    0  0.59731805051E-02  0.21417239835E-01  0.23718036402E-02  0.50000500000E+01  0.50000000000E+01 0.  0.
         50    1    1    2    0    0 -0.59731805051E-02 -0.21417239835E-01 -0.23718036402E-02  0.50000500000E+01  0.50000000000E+01 0.  1.
</event>
<event>
 4    1  0.4967105E-021  0.5000050E+01  0.7818608E-02  0.2136455E+00
        -11   -1    0    0    0    0  0.00000000000E+00  0.00000000000E+00  0.50000499739E+01  0.50000500000E+01  0.51100000000E-03 0.  1.
         11   -1    0    0    0    0 -0.00000000000E+00 -0.00000000000E+00 -0.50000499739E+01  0.50000500000E+01  0.51100000000E-03 0. -1.
         50    1    1    2    0    0  0.19599721235E-01 -0.10042272147E-01 -0.38737833775E-02  0.50000500000E+01  0.50000000000E+01 0. -1.
         50    1    1    2    0    0 -0.19599721235E-01  0.10042272147E-01  0.38737833775E-02  0.50000500000E+01  0.50000000000E+01 0.  1.
</event>
<event>
 4    1  0.4967105E-021  0.5000050E+01  0.7818608E-02  0.2136455E+00
        -11   -1    0    0    0    0  0.00000000000E+00  0.00000000000E+00  0.50000499739E+01  0.50000500000E+01  0.51100000000E-03 0. -1.
         11   -1    0    0    0    0 -0.00000000000E+00 -0.00000000000E+00 -0.50000499739E+01  0.50000500000E+01  0.51100000000E-03 0.  1.
         50    1    1    2    0    0 -0.10983440025E-01  0.18914623677E-01 -0.46479626070E-02  0.50000500000E+01  0.50000000000E+01 0.  1.
         50    1    1    2    0    0  0.10983440025E-01 -0.18914623677E-01  0.46479626070E-02  0.50000500000E+01  0.50000000000E+01 0. -1.
</event>
<event>
 4    1  0.4967105E-021  0.5000050E+01  0.7818608E-02  0.2136455E+00
        -11   -1    0    0    0    0  0.00000000000E+00  0.00000000000E+00  0.50000499739E+01  0.50000500000E+01  0.51100000000E-03 0.  1.
         11   -1    0    0    0    0 -0.00000000000E+00 -0.00000000000E+00 -0.50000499739E+01  0.50000500000E+01  0.51100000000E-03 0. -1.
         50    1    1    2    0    0 -0.15831502245E-01 -0.15787358246E-01  0.35405689137E-03  0.50000500000E+01  0.50000000000E+01 0.  1.
         50    1    1    2    0    0  0.15831502245E-01  0.15787358246E-01 -0.35405689137E-03  0.50000500000E+01  0.50000000000E+01 0. -1.
</event>
<event>
 4    1  0.4967105E-021  0.5000050E+01  0.7818608E-02  0.2136455E+00
        -11   -1    0    0    0    0  0.00000000000E+00  0.00000000000E+00  0.50000499739E+01  0.50000500000E+01  0.51100000000E-03 0.  1.
         11   -1    0    0    0    0 -0.00000000000E+00 -0.00000000000E+00 -0.50000499739E+01  0.50000500000E+01  0.51100000000E-03 0. -1.
         50    1    1    2    0    0  0.18803244939E-03  0.15646858807E-01  0.15973194836E-01  0.50000500000E+01  0.50000000000E+01 0.  1.
         50    1    1    2    0    0 -0.18803244939E-03 -0.15646858807E-01 -0.15973194836E-01  0.50000500000E+01  0.50000000000E+01 0. -1.
</event>
<event>
 4    1  0.4967105E-021  0.5000050E+01  0.7818608E-02  0.2136455E+00
        -11   -1    0    0    0    0  0.00000000000E+00  0.00000000000E+00  0.50000499739E+01  0.50000500000E+01  0.51100000000E-03 0. -1.
         11   -1    0    0    0    0 -0.00000000000E+00 -0.00000000000E+00 -0.50000499739E+01  0.50000500000E+01  0.51100000000E-03 0.  1.
         50    1    1    2    0    0  0.80070204528E-02  0.14624867050E-01 -0.14899778094E-01  0.50000500000E+01  0.50000000000E+01 0. -1.
         50    1    1    2    0    0 -0.80070204528E-02 -0.14624867050E-01  0.14899778094E-01  0.50000500000E+01  0.50000000000E+01 0.  0.
</event>
<event>
 4    1  0.4967105E-021  0.5000050E+01  0.7818608E-02  0.2136455E+00
        -11   -1    0    0    0    0  0.00000000000E+00  0.00000000000E+00  0.50000499739E+01  0.50000500000E+01  0.51100000000E-03 0. -1.
         11   -1    0    0    0    0 -0.00000000000E+00 -0.00000000000E+00 -0.50000499739E+01  0.50000500000E+01  0.51100000000E-03 0.  1.
         50    1    1    2    0    0  0.38452783908E-02 -0.16461359383E-01 -0.14636938935E-01  0.50000500000E+01  0.50000000000E+01 0.  0.
         50    1    1    2    0    0 -0.38452783908E-02  0.16461359383E-01  0.14636938935E-01  0.50000500000E+01  0.50000000000E+01 0.  0.
</event>
<event>
 4    1  0.4967105E-021  0.5000050E+01  0.7818608E-02  0.2136455E+00
        -11   -1    0    0    0    0  0.00000000000E+00  0.00000000000E+00  0.50000499739E+01  0.50000500000E+01  0.51100000000E-03 0. -1.
         11   -1    0    0    0    0 -0.00000000000E+00 -0.00000000000E+00 -0.50000499739E+01  0.50000500000E+01  0.51100000000E-03 0.  1.
         50    1    1    2    0    0  0.57548425000E-02 -0.19605475430E-01 -0.90834806636E-02  0.50000500000E+01  0.50000000000E+01 0.  1.
         50    1    1    2    0    0 -0.57548425000E-02  0.19605475430E-01  0.90834806636E-02  0.50000500000E+01  0.50000000000E+01 0. -1.
</event>
<event>
 4    1  0.4967105E-021  0.5000050E+01  0.7818608E-02  0.2136455E+00
        -11   -1    0    0    0    0  0.00000000000E+00  0.00000000000E+00  0.50000499739E+01  0.50000500000E+01  0.51100000000E-03 0.  1.
         11   -1    0    0    0    0 -0.00000000000E+00 -0.00000000000E+00 -0.50000499739E+01  0.50000500000E+01  0.51100000000E-03 0. -1.
         50    1    1    2    0    0  0.60889023228E-02  0.95545786980E-02  0.19277909493E-01  0.50000500000E+01  0.50000000000E+01 0.  1.
         50    1    1    2    0    0 -0.60889023228E-02 -0.95545786980E-02 -0.19277909493E-01  0.50000500000E+01  0.50000000000E+01 0.  0.
</event>
<event>
 4    1  0.4967105E-021  0.5000050E+01  0.7818608E-02  0.2136455E+00
        -11   -1    0    0    0    0  0.00000000000E+00  0.00000000000E+00  0.50000499739E+01  0.50000500000E+01  0.51100000000E-03 0.  1.
         11   -1    0    0    0    0 -0.00000000000E+00 -0.00000000000E+00 -0.50000499739E+01  0.50000500000E+01  0.51100000000E-03 0. -1.
         50    1    1    2    0    0 -0.18516660192E-01  0.12491401692E-01  0.10491325549E-02  0.50000500000E+01  0.50000000000E+01 0. -1.
         50    1    1    2    0    0  0.18516660192E-01 -0.12491401692E-01 -0.10491325549E-02  0.50000500000E+01  0.50000000000E+01 0.  0.
</event>
<event>
 4    1  0.4967105E-021  0.5000050E+01  0.7818608E-02  0.2136455E+00
        -11   -1    0    0    0    0  0.00000000000E+00  0.00000000000E+00  0.50000499739E+01  0.50000500000E+01  0.51100000000E-03 0. -1.
         11   -1    0    0    0    0 -0.00000000000E+00 -0.00000000000E+00 -0.50000499739E+01  0.50000500000E+01  0.51100000000E-03 0.  1.
         50    1    1    2    0    0  0.37586747787E-02  0.99370197312E-02  0.19675632208E-01  0.50000500000E+01  0.50000000000E+01 0.  0.
         50    1    1    2    0    0 -0.37586747787E-02 -0.99370197312E-02 -0.19675632208E-01  0.50000500000E+01  0.50000000000E+01 0.  0.
</event>
<event>
 4    1  0.4967105E-021  0.5000050E+01  0.7818608E-02  0.2136455E+00
        -11   -1    0    0    0    0  0.00000000000E+00  0.00000000000E+00  0.50000499739E+01  0.50000500000E+01  0.51100000000E-03 0. -1.
         11   -1    0    0    0    0 -0.00000000000E+00 -0.00000000000E+00 -0.50000499739E+01  0.50000500000E+01  0.51100000000E-03 0.  1.
         50    1    1    2    0    0  0.22029080214E-01  0.25277297494E-02 -0.28866429002E-02  0.50000500000E+01  0.50000000000E+01 0. -1.
         50    1    1    2    0    0 -0.22029080214E-01 -0.25277297494E-02  0.28866429002E-02  0.50000500000E+01  0.50000000000E+01 0.  0.
</event>
<event>
 4    1  0.4967105E-021  0.5000050E+01  0.7818608E-02  0.2136455E+00
        -11   -1    0    0    0    0  0.00000000000E+00  0.00000000000E+00  0.50000499739E+01  0.50000500000E+01  0.51100000000E-03 0. -1.
         11   -1    0    0    0    0 -0.00000000000E+00 -0.00000000000E+00 -0.50000499739E+01  0.50000500000E+01  0.51100000000E-03 0.  1.
         50    1    1    2    0    0  0.14552084337E-01 -0.83592736779E-02 -0.14777072952E-01  0.50000500000E+01  0.50000000000E+01 0.  1.
         50    1    1    2    0    0 -0.14552084337E-01  0.83592736779E-02  0.14777072952E-01  0.50000500000E+01  0.50000000000E+01 0. -1.
</event>
<event>
 4    1  0.4967105E-021  0.5000050E+01  0.7818608E-02  0.2136455E+00
        -11   -1    0    0    0    0  0.00000000000E+00  0.00000000000E+00  0.50000499739E+01  0.50000500000E+01  0.51100000000E-03 0. -1.
         11   -1    0    0    0    0 -0.00000000000E+00 -0.00000000000E+00 -0.50000499739E+01  0.50000500000E+01  0.51100000000E-03 0.  1.
         50    1    1    2    0    0 -0.18377863649E-01  0.10693656810E-01 -0.69211510408E-02  0.50000500000E+01  0.50000000000E+01 0.  1.
         50    1    1    2    0    0  0.18377863649E-01 -0.10693656810E-01  0.69211510408E-02  0.50000500000E+01  0.50000000000E+01 0. -1.
</event>
<event>
 4    1  0.4967105E-021  0.5000050E+01  0.7818608E-02  0.2136455E+00
        -11   -1    0    0    0    0  0.00000000000E+00  0.00000000000E+00  0.50000499739E+01  0.50000500000E+01  0.51100000000E-03 0. -1.
         11   -1    0    0    0    0 -0.00000000000E+00 -0.00000000000E+00 -0.50000499739E+01  0.50000500000E+01  0.51100000000E-03 0.  1.
         50    1    1    2    0    0  0.39211751045E-02 -0.21642731550E-01  0.40272890191E-02  0.50000500000E+01  0.50000000000E+01 0.  0.
         50    1    1    2    0    0 -0.39211751045E-02  0.21642731550E-01 -0.40272890191E-02  0.50000500000E+01  0.50000000000E+01 0. -1.
</event>
<event>
 4    1  0.4967105E-021  0.5000050E+01  0.7818608E-02  0.2136455E+00
        -11   -1    0    0    0    0  0.00000000000E+00  0.00000000000E+00  0.50000499739E+01  0.50000500000E+01  0.51100000000E-03 0. -1.
         11   -1    0    0    0    0 -0.00000000000E+00 -0.00000000000E+00 -0.50000499739E+01  0.50000500000E+01  0.51100000000E-03 0.  1.
         50    1    1    2    0    0 -0.10843596343E-01  0.16409205342E-02 -0.19486567121E-01  0.50000500000E+01  0.50000000000E+01 0.  1.
         50    1    1    2    0    0  0.10843596343E-01 -0.16409205342E-02  0.19486567121E-01  0.50000500000E+01  0.50000000000E+01 0. -1.
</event>
<event>
 4    1  0.4967105E-021  0.5000050E+01  0.7818608E-02  0.2136455E+00
        -11   -1    0    0    0    0  0.00000000000E+00  0.00000000000E+00  0.50000499739E+01  0.50000500000E+01  0.51100000000E-03 0.  1.
         11   -1    0    0    0    0 -0.00000000000E+00 -0.00000000000E+00 -0.50000499739E+01  0.50000500000E+01  0.51100000000E-03 0. -1.
         50    1    1    2    0    0  0.82983515384E-03  0.21993812969E-01 -0.39479190350E-02  0.50000500000E+01  0.50000000000E+01 0. -1.
         50    1    1    2    0    0 -0.82983515384E-03 -0.21993812969E-01  0.39479190350E-02  0.50000500000E+01  0.50000000000E+01 0.  1.
</event>
<event>
 4    1  0.4967105E-021  0.5000050E+01  0.7818608E-02  0.2136455E+00
        -11   -1    0    0    0    0  0.00000000000E+00  0.00000000000E+00  0.50000499739E+01  0.50000500000E+01  0.51100000000E-03 0. -1.
         11   -1    0    0    0    0 -0.00000000000E+00 -0.00000000000E+00 -0.50000499739E+01  0.50000500000E+01  0.51100000000E-03 0.  1.
         50    1    1    2    0    0 -0.20019198021E-01  0.50540629973E-02  0.85843262881E-02  0.50000500000E+01  0.50000000000E+01 0.  0.
         50    1    1    2    0    0  0.20019198021E-01 -0.50540629973E-02 -0.85843262881E-02  0.50000500000E+01  0.50000000000E+01 0.  0.
</event>
<event>
 4    1  0.4967105E-021  0.5000050E+01  0.7818608E-02  0.2136455E+00
        -11   -1    0    0    0    0  0.00000000000E+00  0.00000000000E+00  0.50000499739E+01  0.50000500000E+01  0.51100000000E-03 0.  1.
         11   -1    0    0    0    0 -0.00000000000E+00 -0.00000000000E+00 -0.50000499739E+01  0.50000500000E+01  0.51100000000E-03 0. -1.
         50    1    1    2    0    0 -0.36337985936E-02  0.21926605232E-01  0.24539744899E-02  0.50000500000E+01  0.50000000000E+01 0.  0.
         50    1    1    2    0    0  0.36337985936E-02 -0.21926605232E-01 -0.24539744899E-02  0.50000500000E+01  0.50000000000E+01 0. -1.
</event>
<event>
 4    1  0.4967105E-021  0.5000050E+01  0.7818608E-02  0.2136455E+00
        -11   -1    0    0    0    0  0.00000000000E+00  0.00000000000E+00  0.50000499739E+01  0.50000500000E+01  0.51100000000E-03 0. -1.
         11   -1    0    0    0    0 -0.00000000000E+00 -0.00000000000E+00 -0.50000499739E+01  0.50000500000E+01  0.51100000000E-03 0.  1.
         50    1    1    2    0    0 -0.10728489549E-01 -0.10097967805E-02 -0.19592915109E-01  0.50000500000E+01  0.50000000000E+01 0.  1.
         50    1    1    2    0    0  0.10728489549E-01  0.10097967805E-02  0.19592915109E-01  0.50000500000E+01  0.50000000000E+01 0. -1.
</event>
<event>
 4    1  0.4967105E-021  0.5000050E+01  0.7818608E-02  0.2136455E+00
        -11   -1    0    0    0    0  0.00000000000E+00  0.00000000000E+00  0.50000499739E+01  0.50000500000E+01  0.51100000000E-03 0. -1.
         11   -1    0    0    0    0 -0.00000000000E+00 -0.00000000000E+00 -0.50000499739E+01  0.50000500000E+01  0.51100000000E-03 0.  1.
         50    1    1    2    0    0  0.17365898831E-01 -0.31650268593E-03  0.14082893305E-01  0.50000500000E+01  0.50000000000E+01 0. -1.
         50    1    1    2    0    0 -0.17365898831E-01  0.31650268593E-03 -0.14082893305E-01  0.50000500000E+01  0.50000000000E+01 0.  1.
</event>
<event>
 4    1  0.4967105E-021  0.5000050E+01  0.7818608E-02  0.2136455E+00
        -11   -1    0    0    0    0  0.00000000000E+00  0.00000000000E+00  0.50000499739E+01  0.50000500000E+01  0.51100000000E-03 0. -1.
         11   -1    0    0    0    0 -0.00000000000E+00 -0.00000000000E+00 -0.50000499739E+01  0.50000500000E+01  0.51100000000E-03 0.  1.
         50    1    1    2    0    0  0.13132125140E-01  0.13040762011E-01  0.12549434868E-01  0.50000500000E+01  0.50000000000E+01 0. -1.
         50    1    1    2    0    0 -0.13132125140E-01 -0.13040762011E-01 -0.12549434868E-01  0.50000500000E+01  0.50000000000E+01 0. -1.
</event>
<event>
 4    1  0.4967105E-021  0.5000050E+01  0.7818608E-02  0.2136455E+00
        -11   -1    0    0    0    0  0.00000000000E+00  0.00000000000E+00  0.50000499739E+01  0.50000500000E+01  0.51100000000E-03 0.  1.
         11   -1    0    0    0    0 -0.00000000000E+00 -0.00000000000E+00 -0.50000499739E+01  0.50000500000E+01  0.51100000000E-03 0. -1.
         50    1    1    2    0    0  0.78061310242E-02  0.78821379246E-03 -0.20939091132E-01  0.50000500000E+01  0.50000000000E+01 0. -1.
         50    1    1    2    0    0 -0.78061310242E-02 -0.78821379246E-03  0.20939091132E-01  0.50000500000E+01  0.50000000000E+01 0.  0.
</event>
<event>
 4    1  0.4967105E-021  0.5000050E+01  0.7818608E-02  0.2136455E+00
        -11   -1    0    0    0    0  0.00000000000E+00  0.00000000000E+00  0.50000499739E+01  0.50000500000E+01  0.51100000000E-03 0.  1.
         11   -1    0    0    0    0 -0.00000000000E+00 -0.00000000000E+00 -0.50000499739E+01  0.50000500000E+01  0.51100000000E-03 0. -1.
         50    1    1    2    0    0  0.78908217748E-02  0.14592051630E-01 -0.14993647353E-01  0.50000500000E+01  0.50000000000E+01 0. -1.
         50    1    1    2    0    0 -0.78908217748E-02 -0.14592051630E-01  0.14993647353E-01  0.50000500000E+01  0.50000000000E+01 0. -1.
</event>
<event>
 4    1  0.4967105E-021  0.5000050E+01  0.7818608E-02  0.2136455E+00
        -11   -1    0    0    0    0  0.00000000000E+00  0.00000000000E+00  0.50000499739E+01  0.50000500000E+01  0.51100000000E-03 0. -1.
         11   -1    0    0    0    0 -0.00000000000E+00 -0.00000000000E+00 -0.50000499739E+01  0.50000500000E+01  0.51100000000E-03 0.  1.
         50    1    1    2    0    0 -0.15914538294E-01 -0.17423791957E-02 -0.15610704200E-01  0.50000500000E+01  0.50000000000E+01 0.  0.
         50    1    1    2    0    0  0.15914538294E-01  0.17423791957E-02  0.15610704200E-01  0.50000500000E+01  0.50000000000E+01 0.  0.
</event>
<event>
 4    1  0.4967105E-021  0.5000050E+01  0.7818608E-02  0.2136455E+00
        -11   -1    0    0    0    0  0.00000000000E+00  0.00000000000E+00  0.50000499739E+01  0.50000500000E+01  0.51100000000E-03 0. -1.
         11   -1    0    0    0    0 -0.00000000000E+00 -0.00000000000E+00 -0.50000499739E+01  0.50000500000E+01  0.51100000000E-03 0.  1.
         50    1    1    2    0    0  0.10096538513E-01  0.11256474333E-01  0.16472832047E-01  0.50000500000E+01  0.50000000000E+01 0.  1.
         50    1    1    2    0    0 -0.10096538513E-01 -0.11256474333E-01 -0.16472832047E-01  0.50000500000E+01  0.50000000000E+01 0.  1.
</event>
<event>
 4    1  0.4967105E-021  0.5000050E+01  0.7818608E-02  0.2136455E+00
        -11   -1    0    0    0    0  0.00000000000E+00  0.00000000000E+00  0.50000499739E+01  0.50000500000E+01  0.51100000000E-03 0. -1.
         11   -1    0    0    0    0 -0.00000000000E+00 -0.00000000000E+00 -0.50000499739E+01  0.50000500000E+01  0.51100000000E-03 0.  1.
         50    1    1    2    0    0  0.13957392643E-01  0.17466242454E-01 -0.35222882585E-03  0.50000500000E+01  0.50000000000E+01 0.  1.
         50    1    1    2    0    0 -0.13957392643E-01 -0.17466242454E-01  0.35222882585E-03  0.50000500000E+01  0.50000000000E+01 0. -1.
</event>
<event>
 4    1  0.4967105E-021  0.5000050E+01  0.7818608E-02  0.2136455E+00
        -11   -1    0    0    0    0  0.00000000000E+00  0.00000000000E+00  0.50000499739E+01  0.50000500000E+01  0.51100000000E-03 0. -1.
         11   -1    0    0    0    0 -0.00000000000E+00 -0.00000000000E+00 -0.50000499739E+01  0.50000500000E+01  0.51100000000E-03 0.  1.
         50    1    1    2    0    0  0.10558302701E-01  0.67045416038E-02  0.18535745627E-01  0.50000500000E+01  0.50000000000E+01 0.  0.
         50    1    1    2    0    0 -0.10558302701E-01 -0.67045416038E-02 -0.18535745627E-01  0.50000500000E+01  0.50000000000E+01 0.  1.
</event>
<event>
 4    1  0.4967105E-021  0.5000050E+01  0.7818608E-02  0.2136455E+00
        -11   -1    0    0    0    0  0.00000000000E+00  0.00000000000E+00  0.50000499739E+01  0.50000500000E+01  0.51100000000E-03 0.  1.
         11   -1    0    0    0    0 -0.00000000000E+00 -0.00000000000E+00 -0.50000499739E+01  0.50000500000E+01  0.51100000000E-03 0. -1.
         50    1    1    2    0    0 -0.10067653522E-01  0.17024511472E-01 -0.10431244494E-01  0.50000500000E+01  0.50000000000E+01 0.  0.
         50    1    1    2    0    0  0.10067653522E-01 -0.17024511472E-01  0.10431244494E-01  0.50000500000E+01  0.50000000000E+01 0.  0.
</event>
<event>
 4    1  0.4967105E-021  0.5000050E+01  0.7818608E-02  0.2136455E+00
        -11   -1    0    0    0    0  0.00000000000E+00  0.00000000000E+00  0.50000499739E+01  0.50000500000E+01  0.51100000000E-03 0. -1.
         11   -1    0    0    0    0 -0.00000000000E+00 -0.00000000000E+00 -0.50000499739E+01  0.50000500000E+01  0.51100000000E-03 0.  1.
         50    1    1    2    0    0  0.31906389435E-02 -0.14443814966E-01 -0.16768975292E-01  0.50000500000E+01  0.50000000000E+01 0.  1.
         50    1    1    2    0    0 -0.31906389435E-02  0.14443814966E-01  0.16768975292E-01  0.50000500000E+01  0.50000000000E+01 0. -1.
</event>
<event>
 4    1  0.4967105E-021  0.5000050E+01  0.7818608E-02  0.2136455E+00
        -11   -1    0    0    0    0  0.00000000000E+00  0.00000000000E+00  0.50000499739E+01  0.50000500000E+01  0.51100000000E-03 0.  1.
         11   -1    0    0    0    0 -0.00000000000E+00 -0.00000000000E+00 -0.50000499739E+01  0.50000500000E+01  0.51100000000E-03 0. -1.
         50    1    1    2    0    0  0.11477639879E-01 -0.43255812639E-02  0.18696406862E-01  0.50000500000E+01  0.50000000000E+01 0.  0.
         50    1    1    2    0    0 -0.11477639879E-01  0.43255812639E-02 -0.18696406862E-01  0.50000500000E+01  0.50000000000E+01 0. -1.
</event>
<event>
 4    1  0.4967105E-021  0.5000050E+01  0.7818608E-02  0.2136455E+00
        -11   -1    0    0    0    0  0.00000000000E+00  0.00000000000E+00  0.50000499739E+01  0.50000500000E+01  0.51100000000E-03 0. -1.
         11   -1    0    0    0    0 -0.00000000000E+00 -0.00000000000E+00 -0.50000499739E+01  0.50000500000E+01  0.51100000000E-03 0.  1.
         50    1    1    2    0    0  0.19369869814E-01  0.10888863039E-01 -0.24986606598E-02  0.50000500000E+01  0.50000000000E+01 0.  0.
         50    1    1    2    0    0 -0.19369869814E-01 -0.10888863039E-01  0.24986606598E-02  0.50000500000E+01  0.50000000000E+01 0.  1.
</event>
<event>
 4    1  0.4967105E-021  0.5000050E+01  0.7818608E-02  0.2136455E+00
        -11   -1    0    0    0    0  0.00000000000E+00  0.00000000000E+00  0.50000499739E+01  0.50000500000E+01  0.51100000000E-03 0.  1.
         11   -1    0    0    0    0 -0.00000000000E+00 -0.00000000000E+00 -0.50000499739E+01  0.50000500000E+01  0.51100000000E-03 0. -1.
         50    1    1    2    0    0  0.28821695589E-02  0.11534195417E-01  0.18938266412E-01  0.50000500000E+01  0.50000000000E+01 0.  1.
         50    1    1    2    0    0 -0.28821695589E-02 -0.11534195417E-01 -0.18938266412E-01  0.50000500000E+01  0.50000000000E+01 0.  1.
</event>
<event>
 4    1  0.4967105E-021  0.5000050E+01  0.7818608E-02  0.2136455E+00
        -11   -1    0    0    0    0  0.00000000000E+00  0.00000000000E+00  0.50000499739E+01  0.50000500000E+01  0.51100000000E-03 0. -1.
         11   -1    0    0    0    0 -0.00000000000E+00 -0.00000000000E+00 -0.50000499739E+01  0.50000500000E+01  0.51100000000E-03 0.  1.
         50    1    1    2    0    0  0.63713346046E-02  0.14032982276E-01 -0.16201358085E-01  0.50000500000E+01  0.50000000000E+01 0.  0.
         50    1    1    2    0    0 -0.63713346046E-02 -0.14032982276E-01  0.16201358085E-01  0.50000500000E+01  0.50000000000E+01 0.  0.
</event>
<event>
 4    1  0.4967105E-021  0.5000050E+01  0.7818608E-02  0.2136455E+00
        -11   -1    0    0    0    0  0.00000000000E+00  0.00000000000E+00  0.50000499739E+01  0.50000500000E+01  0.51100000000E-03 0. -1.
         11   -1    0    0    0    0 -0.00000000000E+00 -0.00000000000E+00 -0.50000499739E+01  0.50000500000E+01  0.51100000000E-03 0.  1.
         50    1    1    2    0    0  0.11624029667E-01 -0.92876186143E-02 -0.16692051245E-01  0.50000500000E+01  0.50000000000E+01 0.  0.
         50    1    1    2    0    0 -0.11624029667E-01  0.92876186143E-02  0.16692051245E-01  0.50000500000E+01  0.50000000000E+01 0.  1.
</event>
<event>
 4    1  0.4967105E-021  0.5000050E+01  0.7818608E-02  0.2136455E+00
        -11   -1    0    0    0    0  0.00000000000E+00  0.00000000000E+00  0.50000499739E+01  0.50000500000E+01  0.51100000000E-03 0.  1.
         11   -1    0    0    0    0 -0.00000000000E+00 -0.00000000000E+00 -0.50000499739E+01  0.50000500000E+01  0.51100000000E-03 0. -1.
         50    1    1    2    0    0 -0.18324888627E-01 -0.12631460264E-01 -0.21557292007E-02  0.50000500000E+01  0.50000000000E+01 0.  0.
         50    1    1    2    0    0  0.18324888627E-01  0.12631460264E-01  0.21557292007E-02  0.50000500000E+01  0.50000000000E+01 0.  1.
</event>
<event>
 4    1  0.4967105E-021  0.5000050E+01  0.7818608E-02  0.2136455E+00
        -11   -1    0    0    0    0  0.00000000000E+00  0.00000000000E+00  0.50000499739E+01  0.50000500000E+01  0.51100000000E-03 0. -1.
         11   -1    0    0    0    0 -0.00000000000E+00 -0.00000000000E+00 -0.50000499739E+01  0.50000500000E+01  0.51100000000E-03 0.  1.
         50    1    1    2    0    0  0.22048026862E-01 -0.23342955889E-02 -0.29048365842E-02  0.50000500000E+01  0.50000000000E+01 0. -1.
         50    1    1    2    0    0 -0.22048026862E-01  0.23342955889E-02  0.29048365842E-02  0.50000500000E+01  0.50000000000E+01 0.  0.
</event>
<event>
 4    1  0.4967105E-021  0.5000050E+01  0.7818608E-02  0.2136455E+00
        -11   -1    0    0    0    0  0.00000000000E+00  0.00000000000E+00  0.50000499739E+01  0.50000500000E+01  0.51100000000E-03 0.  1.
         11   -1    0    0    0    0 -0.00000000000E+00 -0.00000000000E+00 -0.50000499739E+01  0.50000500000E+01  0.51100000000E-03 0. -1.
         50    1    1    2    0    0  0.79093708267E-02 -0.19118841049E-01 -0.84802281857E-02  0.50000500000E+01  0.50000000000E+01 0.  1.
         50    1    1    2    0    0 -0.79093708267E-02  0.19118841049E-01  0.84802281857E-02  0.50000500000E+01  0.50000000000E+01 0.  0.
</event>
<event>
 4    1  0.4967105E-021  0.5000050E+01  0.7818608E-02  0.2136455E+00
        -11   -1    0    0    0    0  0.00000000000E+00  0.00000000000E+00  0.50000499739E+01  0.50000500000E+01  0.51100000000E-03 0.  1.
         11   -1    0    0    0    0 -0.00000000000E+00 -0.00000000000E+00 -0.50000499739E+01  0.50000500000E+01  0.51100000000E-03 0. -1.
         50    1    1    2    0    0 -0.16074275575E-01 -0.34346128823E-02 -0.15159934007E-01  0.50000500000E+01  0.50000000000E+01 0. -1.
         50    1    1    2    0    0  0.16074275575E-01  0.34346128823E-02  0.15159934007E-01  0.50000500000E+01  0.50000000000E+01 0.  1.
</event>
<event>
 4    1  0.4967105E-021  0.5000050E+01  0.7818608E-02  0.2136455E+00
        -11   -1    0    0    0    0  0.00000000000E+00  0.00000000000E+00  0.50000499739E+01  0.50000500000E+01  0.51100000000E-03 0. -1.
         11   -1    0    0    0    0 -0.00000000000E+00 -0.00000000000E+00 -0.50000499739E+01  0.50000500000E+01  0.51100000000E-03 0.  1.
         50    1    1    2    0    0  0.74057560256E-02 -0.13855932213E-01 -0.15911329932E-01  0.50000500000E+01  0.50000000000E+01 0. -1.
         50    1    1    2    0    0 -0.74057560256E-02  0.13855932213E-01  0.15911329932E-01  0.50000500000E+01  0.50000000000E+01 0.  0.
</event>
<event>
 4    1  0.4967105E-021  0.5000050E+01  0.7818608E-02  0.2136455E+00
        -11   -1    0    0    0    0  0.00000000000E+00  0.00000000000E+00  0.50000499739E+01  0.50000500000E+01  0.51100000000E-03 0.  1.
         11   -1    0    0    0    0 -0.00000000000E+00 -0.00000000000E+00 -0.50000499739E+01  0.50000500000E+01  0.51100000000E-03 0. -1.
         50    1    1    2    0    0 -0.21266557779E-01 -0.68332656930E-02  0.10210289873E-02  0.50000500000E+01  0.50000000000E+01 0. -1.
         50    1    1    2    0    0  0.21266557779E-01  0.68332656930E-02 -0.10210289873E-02  0.50000500000E+01  0.50000000000E+01 0.  1.
</event>
<event>
 4    1  0.4967105E-021  0.5000050E+01  0.7818608E-02  0.2136455E+00
        -11   -1    0    0    0    0  0.00000000000E+00  0.00000000000E+00  0.50000499739E+01  0.50000500000E+01  0.51100000000E-03 0.  1.
         11   -1    0    0    0    0 -0.00000000000E+00 -0.00000000000E+00 -0.50000499739E+01  0.50000500000E+01  0.51100000000E-03 0. -1.
         50    1    1    2    0    0 -0.21745039090E-01 -0.48322489876E-02  0.19506780046E-02  0.50000500000E+01  0.50000000000E+01 0. -1.
         50    1    1    2    0    0  0.21745039090E-01  0.48322489876E-02 -0.19506780046E-02  0.50000500000E+01  0.50000000000E+01 0.  1.
</event>
<event>
 4    1  0.4967105E-021  0.5000050E+01  0.7818608E-02  0.2136455E+00
        -11   -1    0    0    0    0  0.00000000000E+00  0.00000000000E+00  0.50000499739E+01  0.50000500000E+01  0.51100000000E-03 0. -1.
         11   -1    0    0    0    0 -0.00000000000E+00 -0.00000000000E+00 -0.50000499739E+01  0.50000500000E+01  0.51100000000E-03 0.  1.
         50    1    1    2    0    0  0.48475770585E-02 -0.13255967002E-01 -0.17343091867E-01  0.50000500000E+01  0.50000000000E+01 0.  0.
         50    1    1    2    0    0 -0.48475770585E-02  0.13255967002E-01  0.17343091867E-01  0.50000500000E+01  0.50000000000E+01 0.  0.
</event>
<event>
 4    1  0.4967105E-021  0.5000050E+01  0.7818608E-02  0.2136455E+00
        -11   -1    0    0    0    0  0.00000000000E+00  0.00000000000E+00  0.50000499739E+01  0.50000500000E+01  0.51100000000E-03 0. -1.
         11   -1    0    0    0    0 -0.00000000000E+00 -0.00000000000E+00 -0.50000499739E+01  0.50000500000E+01  0.51100000000E-03 0.  1.
         50    1    1    2    0    0 -0.20996041384E-01 -0.19051486919E-02  0.74524596387E-02  0.50000500000E+01  0.50000000000E+01 0.  0.
         50    1    1    2    0    0  0.20996041384E-01  0.19051486919E-02 -0.74524596387E-02  0.50000500000E+01  0.50000000000E+01 0.  0.
</event>
<event>
 4    1  0.4967105E-021  0.5000050E+01  0.7818608E-02  0.2136455E+00
        -11   -1    0    0    0    0  0.00000000000E+00  0.00000000000E+00  0.50000499739E+01  0.50000500000E+01  0.51100000000E-03 0. -1.
         11   -1    0    0    0    0 -0.00000000000E+00 -0.00000000000E+00 -0.50000499739E+01  0.50000500000E+01  0.51100000000E-03 0.  1.
         50    1    1    2    0    0  0.10698784336E-01  0.19194993166E-01  0.41340961634E-02  0.50000500000E+01  0.50000000000E+01 0. -1.
         50    1    1    2    0    0 -0.10698784336E-01 -0.19194993166E-01 -0.41340961634E-02  0.50000500000E+01  0.50000000000E+01 0.  1.
</event>
<event>
 4    1  0.4967105E-021  0.5000050E+01  0.7818608E-02  0.2136455E+00
        -11   -1    0    0    0    0  0.00000000000E+00  0.00000000000E+00  0.50000499739E+01  0.50000500000E+01  0.51100000000E-03 0. -1.
         11   -1    0    0    0    0 -0.00000000000E+00 -0.00000000000E+00 -0.50000499739E+01  0.50000500000E+01  0.51100000000E-03 0.  1.
         50    1    1    2    0    0  0.12014327598E-01  0.33282308747E-02  0.18562901487E-01  0.50000500000E+01  0.50000000000E+01 0.  0.
         50    1    1    2    0    0 -0.12014327598E-01 -0.33282308747E-02 -0.18562901487E-01  0.50000500000E+01  0.50000000000E+01 0.  0.
</event>
<event>
 4    1  0.4967105E-021  0.5000050E+01  0.7818608E-02  0.2136455E+00
        -11   -1    0    0    0    0  0.00000000000E+00  0.00000000000E+00  0.50000499739E+01  0.50000500000E+01  0.51100000000E-03 0. -1.
         11   -1    0    0    0    0 -0.00000000000E+00 -0.00000000000E+00 -0.50000499739E+01  0.50000500000E+01  0.51100000000E-03 0.  1.
         50    1    1    2    0    0 -0.18946664670E-01 -0.11495872870E-01 -0.29784735755E-02  0.50000500000E+01  0.50000000000E+01 0. -1.
         50    1    1    2    0    0  0.18946664670E-01  0.11495872870E-01  0.29784735755E-02  0.50000500000E+01  0.50000000000E+01 0.  0.
</event>
<event>
 4    1  0.4967105E-021  0.5000050E+01  0.7818608E-02  0.2136455E+00
        -11   -1    0    0    0    0  0.00000000000E+00  0.00000000000E+00  0.50000499739E+01  0.50000500000E+01  0.51100000000E-03 0. -1.
         11   -1    0    0    0    0 -0.00000000000E+00 -0.00000000000E+00 -0.50000499739E+01  0.50000500000E+01  0.51100000000E-03 0.  1.
         50    1    1    2    0    0  0.26411656905E-02 -0.20283268586E-01 -0.90341440808E-02  0.50000500000E+01  0.50000000000E+01 0.  1.
         50    1    1    2    0    0 -0.26411656905E-02  0.20283268586E-01  0.90341440808E-02  0.50000500000E+01  0.50000000000E+01 0. -1.
</event>
<event>
 4    1  0.4967105E-021  0.5000050E+01  0.7818608E-02  0.2136455E+00
        -11   -1    0    0    0    0  0.00000000000E+00  0.00000000000E+00  0.50000499739E+01  0.50000500000E+01  0.51100000000E-03 0.  1.
         11   -1    0    0    0    0 -0.00000000000E+00 -0.00000000000E+00 -0.50000499739E+01  0.50000500000E+01  0.51100000000E-03 0. -1.
         50    1    1    2    0    0  0.19952968107E-01 -0.70808075784E-02  0.71933113212E-02  0.50000500000E+01  0.50000000000E+01 0. -1.
         50    1    1    2    0    0 -0.19952968107E-01  0.70808075784E-02 -0.71933113212E-02  0.50000500000E+01  0.50000000000E+01 0.  0.
</event>
<event>
 4    1  0.4967105E-021  0.5000050E+01  0.7818608E-02  0.2136455E+00
        -11   -1    0    0    0    0  0.00000000000E+00  0.00000000000E+00  0.50000499739E+01  0.50000500000E+01  0.51100000000E-03 0. -1.
         11   -1    0    0    0    0 -0.00000000000E+00 -0.00000000000E+00 -0.50000499739E+01  0.50000500000E+01  0.51100000000E-03 0.  1.
         50    1    1    2    0    0  0.15483049932E-01 -0.89195265827E-02 -0.13443203128E-01  0.50000500000E+01  0.50000000000E+01 0.  1.
         50    1    1    2    0    0 -0.15483049932E-01  0.89195265827E-02  0.13443203128E-01  0.50000500000E+01  0.50000000000E+01 0. -1.
</event>
<event>
 4    1  0.4967105E-021  0.5000050E+01  0.7818608E-02  0.2136455E+00
        -11   -1    0    0    0    0  0.00000000000E+00  0.00000000000E+00  0.50000499739E+01  0.50000500000E+01  0.51100000000E-03 0. -1.
         11   -1    0    0    0    0 -0.00000000000E+00 -0.00000000000E+00 -0.50000499739E+01  0.50000500000E+01  0.51100000000E-03 0.  1.
         50    1    1    2    0    0 -0.20279503295E-01 -0.89404766302E-02  0.29685221454E-02  0.50000500000E+01  0.50000000000E+01 0.  0.
         50    1    1    2    0    0  0.20279503295E-01  0.89404766302E-02 -0.29685221454E-02  0.50000500000E+01  0.50000000000E+01 0.  1.
</event>
<event>
 4    1  0.4967105E-021  0.5000050E+01  0.7818608E-02  0.2136455E+00
        -11   -1    0    0    0    0  0.00000000000E+00  0.00000000000E+00  0.50000499739E+01  0.50000500000E+01  0.51100000000E-03 0. -1.
         11   -1    0    0    0    0 -0.00000000000E+00 -0.00000000000E+00 -0.50000499739E+01  0.50000500000E+01  0.51100000000E-03 0.  1.
         50    1    1    2    0    0  0.57629189172E-02 -0.19868957720E-01 -0.84862114449E-02  0.50000500000E+01  0.50000000000E+01 0.  0.
         50    1    1    2    0    0 -0.57629189172E-02  0.19868957720E-01  0.84862114449E-02  0.50000500000E+01  0.50000000000E+01 0.  1.
</event>
<event>
 4    1  0.4967105E-021  0.5000050E+01  0.7818608E-02  0.2136455E+00
        -11   -1    0    0    0    0  0.00000000000E+00  0.00000000000E+00  0.50000499739E+01  0.50000500000E+01  0.51100000000E-03 0. -1.
         11   -1    0    0    0    0 -0.00000000000E+00 -0.00000000000E+00 -0.50000499739E+01  0.50000500000E+01  0.51100000000E-03 0.  1.
         50    1    1    2    0    0  0.86220779129E-02 -0.19188705554E-01 -0.75799638273E-02  0.50000500000E+01  0.50000000000E+01 0.  0.
         50    1    1    2    0    0 -0.86220779129E-02  0.19188705554E-01  0.75799638273E-02  0.50000500000E+01  0.50000000000E+01 0.  0.
</event>
<event>
 4    1  0.4967105E-021  0.5000050E+01  0.7818608E-02  0.2136455E+00
        -11   -1    0    0    0    0  0.00000000000E+00  0.00000000000E+00  0.50000499739E+01  0.50000500000E+01  0.51100000000E-03 0. -1.
         11   -1    0    0    0    0 -0.00000000000E+00 -0.00000000000E+00 -0.50000499739E+01  0.50000500000E+01  0.51100000000E-03 0.  1.
         50    1    1    2    0    0 -0.48509757073E-02 -0.17670088970E-01  0.12815556581E-01  0.50000500000E+01  0.50000000000E+01 0. -1.
         50    1    1    2    0    0  0.48509757073E-02  0.17670088970E-01 -0.12815556581E-01  0.50000500000E+01  0.50000000000E+01 0. -1.
</event>
<event>
 4    1  0.4967105E-021  0.5000050E+01  0.7818608E-02  0.2136455E+00
        -11   -1    0    0    0    0  0.00000000000E+00  0.00000000000E+00  0.50000499739E+01  0.50000500000E+01  0.51100000000E-03 0.  1.
         11   -1    0    0    0    0 -0.00000000000E+00 -0.00000000000E+00 -0.50000499739E+01  0.50000500000E+01  0.51100000000E-03 0. -1.
         50    1    1    2    0    0  0.27902399256E-02  0.19556147958E-01  0.10477315410E-01  0.50000500000E+01  0.50000000000E+01 0.  1.
         50    1    1    2    0    0 -0.27902399256E-02 -0.19556147958E-01 -0.10477315410E-01  0.50000500000E+01  0.50000000000E+01 0. -1.
</event>
<event>
 4    1  0.4967105E-021  0.5000050E+01  0.7818608E-02  0.2136455E+00
        -11   -1    0    0    0    0  0.00000000000E+00  0.00000000000E+00  0.50000499739E+01  0.50000500000E+01  0.51100000000E-03 0. -1.
         11   -1    0    0    0    0 -0.00000000000E+00 -0.00000000000E+00 -0.50000499739E+01  0.50000500000E+01  0.51100000000E-03 0.  1.
         50    1    1    2    0    0 -0.65233096289E-02 -0.56371977652E-02  0.20631794222E-01  0.50000500000E+01  0.50000000000E+01 0. -1.
         50    1    1    2    0    0  0.65233096289E-02  0.56371977652E-02 -0.20631794222E-01  0.50000500000E+01  0.50000000000E+01 0.  1.
</event>
<event>
 4    1  0.4967105E-021  0.5000050E+01  0.7818608E-02  0.2136455E+00
        -11   -1    0    0    0    0  0.00000000000E+00  0.00000000000E+00  0.50000499739E+01  0.50000500000E+01  0.51100000000E-03 0.  1.
         11   -1    0    0    0    0 -0.00000000000E+00 -0.00000000000E+00 -0.50000499739E+01  0.50000500000E+01  0.51100000000E-03 0. -1.
         50    1    1    2    0    0  0.20405273200E-02  0.21143753167E-01  0.69843002715E-02  0.50000500000E+01  0.50000000000E+01 0.  0.
         50    1    1    2    0    0 -0.20405273200E-02 -0.21143753167E-01 -0.69843002715E-02  0.50000500000E+01  0.50000000000E+01 0.  0.
</event>
<event>
 4    1  0.4967105E-021  0.5000050E+01  0.7818608E-02  0.2136455E+00
        -11   -1    0    0    0    0  0.00000000000E+00  0.00000000000E+00  0.50000499739E+01  0.50000500000E+01  0.51100000000E-03 0.  1.
         11   -1    0    0    0    0 -0.00000000000E+00 -0.00000000000E+00 -0.50000499739E+01  0.50000500000E+01  0.51100000000E-03 0. -1.
         50    1    1    2    0    0  0.20966533519E-01 -0.36422051269E-02 -0.68659532478E-02  0.50000500000E+01  0.50000000000E+01 0.  0.
         50    1    1    2    0    0 -0.20966533519E-01  0.36422051269E-02  0.68659532478E-02  0.50000500000E+01  0.50000000000E+01 0.  1.
</event>
<event>
 4    1  0.4967105E-021  0.5000050E+01  0.7818608E-02  0.2136455E+00
        -11   -1    0    0    0    0  0.00000000000E+00  0.00000000000E+00  0.50000499739E+01  0.50000500000E+01  0.51100000000E-03 0.  1.
         11   -1    0    0    0    0 -0.00000000000E+00 -0.00000000000E+00 -0.50000499739E+01  0.50000500000E+01  0.51100000000E-03 0. -1.
         50    1    1    2    0    0  0.16392152761E-01 -0.11250670949E-01  0.10233388053E-01  0.50000500000E+01  0.50000000000E+01 0.  0.
         50    1    1    2    0    0 -0.16392152761E-01  0.11250670949E-01 -0.10233388053E-01  0.50000500000E+01  0.50000000000E+01 0.  0.
</event>
<event>
 4    1  0.4967105E-021  0.5000050E+01  0.7818608E-02  0.2136455E+00
        -11   -1    0    0    0    0  0.00000000000E+00  0.00000000000E+00  0.50000499739E+01  0.50000500000E+01  0.51100000000E-03 0.  1.
         11   -1    0    0    0    0 -0.00000000000E+00 -0.00000000000E+00 -0.50000499739E+01  0.50000500000E+01  0.51100000000E-03 0. -1.
         50    1    1    2    0    0 -0.20166861086E-01 -0.31777623747E-02  0.91215152383E-02  0.50000500000E+01  0.50000000000E+01 0.  1.
         50    1    1    2    0    0  0.20166861086E-01  0.31777623747E-02 -0.91215152383E-02  0.50000500000E+01  0.50000000000E+01 0. -1.
</event>
<event>
 4    1  0.4967105E-021  0.5000050E+01  0.7818608E-02  0.2136455E+00
        -11   -1    0    0    0    0  0.00000000000E+00  0.00000000000E+00  0.50000499739E+01  0.50000500000E+01  0.51100000000E-03 0. -1.
         11   -1    0    0    0    0 -0.00000000000E+00 -0.00000000000E+00 -0.50000499739E+01  0.50000500000E+01  0.51100000000E-03 0.  1.
         50    1    1    2    0    0 -0.11913892495E-01  0.18607856161E-01  0.34364741657E-02  0.50000500000E+01  0.50000000000E+01 0. -1.
         50    1    1    2    0    0  0.11913892495E-01 -0.18607856161E-01 -0.34364741657E-02  0.50000500000E+01  0.50000000000E+01 0.  1.
</event>
<event>
 4    1  0.4967105E-021  0.5000050E+01  0.7818608E-02  0.2136455E+00
        -11   -1    0    0    0    0  0.00000000000E+00  0.00000000000E+00  0.50000499739E+01  0.50000500000E+01  0.51100000000E-03 0.  1.
         11   -1    0    0    0    0 -0.00000000000E+00 -0.00000000000E+00 -0.50000499739E+01  0.50000500000E+01  0.51100000000E-03 0. -1.
         50    1    1    2    0    0 -0.17894551470E-01 -0.13399759676E-01  0.48370269249E-03  0.50000500000E+01  0.50000000000E+01 0.  0.
         50    1    1    2    0    0  0.17894551470E-01  0.13399759676E-01 -0.48370269249E-03  0.50000500000E+01  0.50000000000E+01 0. -1.
</event>
<event>
 4    1  0.4967105E-021  0.5000050E+01  0.7818608E-02  0.2136455E+00
        -11   -1    0    0    0    0  0.00000000000E+00  0.00000000000E+00  0.50000499739E+01  0.50000500000E+01  0.51100000000E-03 0.  1.
         11   -1    0    0    0    0 -0.00000000000E+00 -0.00000000000E+00 -0.50000499739E+01  0.50000500000E+01  0.51100000000E-03 0. -1.
         50    1    1    2    0    0 -0.10892560572E-01  0.18210614696E-02  0.19443208565E-01  0.50000500000E+01  0.50000000000E+01 0.  0.
         50    1    1    2    0    0  0.10892560572E-01 -0.18210614696E-02 -0.19443208565E-01  0.50000500000E+01  0.50000000000E+01 0. -1.
</event>
<event>
 4    1  0.4967105E-021  0.5000050E+01  0.7818608E-02  0.2136455E+00
        -11   -1    0    0    0    0  0.00000000000E+00  0.00000000000E+00  0.50000499739E+01  0.50000500000E+01  0.51100000000E-03 0. -1.
         11   -1    0    0    0    0 -0.00000000000E+00 -0.00000000000E+00 -0.50000499739E+01  0.50000500000E+01  0.51100000000E-03 0.  1.
         50    1    1    2    0    0 -0.14434187365E-01 -0.12719650000E-01  0.11395930807E-01  0.50000500000E+01  0.50000000000E+01 0. -1.
         50    1    1    2    0    0  0.14434187365E-01  0.12719650000E-01 -0.11395930807E-01  0.50000500000E+01  0.50000000000E+01 0.  1.
</event>
<event>
 4    1  0.4967105E-021  0.5000050E+01  0.7818608E-02  0.2136455E+00
        -11   -1    0    0    0    0  0.00000000000E+00  0.00000000000E+00  0.50000499739E+01  0.50000500000E+01  0.51100000000E-03 0.  1.
         11   -1    0    0    0    0 -0.00000000000E+00 -0.00000000000E+00 -0.50000499739E+01  0.50000500000E+01  0.51100000000E-03 0. -1.
         50    1    1    2    0    0  0.15271726570E-01 -0.13376053783E-01 -0.93732626523E-02  0.50000500000E+01  0.50000000000E+01 0.  0.
         50    1    1    2    0    0 -0.15271726570E-01  0.13376053783E-01  0.93732626523E-02  0.50000500000E+01  0.50000000000E+01 0. -1.
</event>
<event>
 4    1  0.4967105E-021  0.5000050E+01  0.7818608E-02  0.2136455E+00
        -11   -1    0    0    0    0  0.00000000000E+00  0.00000000000E+00  0.50000499739E+01  0.50000500000E+01  0.51100000000E-03 0. -1.
         11   -1    0    0    0    0 -0.00000000000E+00 -0.00000000000E+00 -0.50000499739E+01  0.50000500000E+01  0.51100000000E-03 0.  1.
         50    1    1    2    0    0 -0.15442807776E-01 -0.12775564157E-01  0.99149961402E-02  0.50000500000E+01  0.50000000000E+01 0. -1.
         50    1    1    2    0    0  0.15442807776E-01  0.12775564157E-01 -0.99149961402E-02  0.50000500000E+01  0.50000000000E+01 0.  1.
</event>
<event>
 4    1  0.4967105E-021  0.5000050E+01  0.7818608E-02  0.2136455E+00
        -11   -1    0    0    0    0  0.00000000000E+00  0.00000000000E+00  0.50000499739E+01  0.50000500000E+01  0.51100000000E-03 0. -1.
         11   -1    0    0    0    0 -0.00000000000E+00 -0.00000000000E+00 -0.50000499739E+01  0.50000500000E+01  0.51100000000E-03 0.  1.
         50    1    1    2    0    0 -0.22173686700E-01 -0.28170753353E-02  0.62785721423E-03  0.50000500000E+01  0.50000000000E+01 0.  0.
         50    1    1    2    0    0  0.22173686700E-01  0.28170753353E-02 -0.62785721423E-03  0.50000500000E+01  0.50000000000E+01 0. -1.
</event>
<event>
 4    1  0.4967105E-021  0.5000050E+01  0.7818608E-02  0.2136455E+00
        -11   -1    0    0    0    0  0.00000000000E+00  0.00000000000E+00  0.50000499739E+01  0.50000500000E+01  0.51100000000E-03 0. -1.
         11   -1    0    0    0    0 -0.00000000000E+00 -0.00000000000E+00 -0.50000499739E+01  0.50000500000E+01  0.51100000000E-03 0.  1.
         50    1    1    2    0    0 -0.10124112404E-01  0.64971339352E-02 -0.18849193581E-01  0.50000500000E+01  0.50000000000E+01 0.  0.
         50    1    1    2    0    0  0.10124112404E-01 -0.64971339352E-02  0.18849193581E-01  0.50000500000E+01  0.50000000000E+01 0. -1.
</event>
<event>
 4    1  0.4967105E-021  0.5000050E+01  0.7818608E-02  0.2136455E+00
        -11   -1    0    0    0    0  0.00000000000E+00  0.00000000000E+00  0.50000499739E+01  0.50000500000E+01  0.51100000000E-03 0. -1.
         11   -1    0    0    0    0 -0.00000000000E+00 -0.00000000000E+00 -0.50000499739E+01  0.50000500000E+01  0.51100000000E-03 0.  1.
         50    1    1    2    0    0 -0.18102072354E-01  0.58525940176E-03 -0.13113921913E-01  0.50000500000E+01  0.50000000000E+01 0.  1.
         50    1    1    2    0    0  0.18102072354E-01 -0.58525940176E-03  0.13113921913E-01  0.50000500000E+01  0.50000000000E+01 0. -1.
</event>
<event>
 4    1  0.4967105E-021  0.5000050E+01  0.7818608E-02  0.2136455E+00
        -11   -1    0    0    0    0  0.00000000000E+00  0.00000000000E+00  0.50000499739E+01  0.50000500000E+01  0.51100000000E-03 0. -1.
         11   -1    0    0    0    0 -0.00000000000E+00 -0.00000000000E+00 -0.50000499739E+01  0.50000500000E+01  0.51100000000E-03 0.  1.
         50    1    1    2    0    0 -0.18709868914E-01  0.79598495139E-02 -0.93050578148E-02  0.50000500000E+01  0.50000000000E+01 0. -1.
         50    1    1    2    0    0  0.18709868914E-01 -0.79598495139E-02  0.93050578148E-02  0.50000500000E+01  0.50000000000E+01 0.  1.
</event>
<event>
 4    1  0.4967105E-021  0.5000050E+01  0.7818608E-02  0.2136455E+00
        -11   -1    0    0    0    0  0.00000000000E+00  0.00000000000E+00  0.50000499739E+01  0.50000500000E+01  0.51100000000E-03 0. -1.
         11   -1    0    0    0    0 -0.00000000000E+00 -0.00000000000E+00 -0.50000499739E+01  0.50000500000E+01  0.51100000000E-03 0.  1.
         50    1    1    2    0    0 -0.16760917651E-01 -0.11176092430E-01  0.97040763340E-02  0.50000500000E+01  0.50000000000E+01 0.  1.
         50    1    1    2    0    0  0.16760917651E-01  0.11176092430E-01 -0.97040763340E-02  0.50000500000E+01  0.50000000000E+01 0.  0.
</event>
<event>
 4    1  0.4967105E-021  0.5000050E+01  0.7818608E-02  0.2136455E+00
        -11   -1    0    0    0    0  0.00000000000E+00  0.00000000000E+00  0.50000499739E+01  0.50000500000E+01  0.51100000000E-03 0.  1.
         11   -1    0    0    0    0 -0.00000000000E+00 -0.00000000000E+00 -0.50000499739E+01  0.50000500000E+01  0.51100000000E-03 0. -1.
         50    1    1    2    0    0 -0.19744384792E-01 -0.10487024894E-01  0.42904320517E-03  0.50000500000E+01  0.50000000000E+01 0.  1.
         50    1    1    2    0    0  0.19744384792E-01  0.10487024894E-01 -0.42904320517E-03  0.50000500000E+01  0.50000000000E+01 0. -1.
</event>
<event>
 4    1  0.4967105E-021  0.5000050E+01  0.7818608E-02  0.2136455E+00
        -11   -1    0    0    0    0  0.00000000000E+00  0.00000000000E+00  0.50000499739E+01  0.50000500000E+01  0.51100000000E-03 0.  1.
         11   -1    0    0    0    0 -0.00000000000E+00 -0.00000000000E+00 -0.50000499739E+01  0.50000500000E+01  0.51100000000E-03 0. -1.
         50    1    1    2    0    0  0.71246864004E-02  0.20690830612E-01 -0.45968328527E-02  0.50000500000E+01  0.50000000000E+01 0.  1.
         50    1    1    2    0    0 -0.71246864004E-02 -0.20690830612E-01  0.45968328527E-02  0.50000500000E+01  0.50000000000E+01 0. -1.
</event>
<event>
 4    1  0.4967105E-021  0.5000050E+01  0.7818608E-02  0.2136455E+00
        -11   -1    0    0    0    0  0.00000000000E+00  0.00000000000E+00  0.50000499739E+01  0.50000500000E+01  0.51100000000E-03 0.  1.
         11   -1    0    0    0    0 -0.00000000000E+00 -0.00000000000E+00 -0.50000499739E+01  0.50000500000E+01  0.51100000000E-03 0. -1.
         50    1    1    2    0    0 -0.19212189694E-02 -0.21910148897E-01 -0.40319713528E-02  0.50000500000E+01  0.50000000000E+01 0. -1.
         50    1    1    2    0    0  0.19212189694E-02  0.21910148897E-01  0.40319713528E-02  0.50000500000E+01  0.50000000000E+01 0.  0.
</event>
<event>
 4    1  0.4967105E-021  0.5000050E+01  0.7818608E-02  0.2136455E+00
        -11   -1    0    0    0    0  0.00000000000E+00  0.00000000000E+00  0.50000499739E+01  0.50000500000E+01  0.51100000000E-03 0.  1.
         11   -1    0    0    0    0 -0.00000000000E+00 -0.00000000000E+00 -0.50000499739E+01  0.50000500000E+01  0.51100000000E-03 0. -1.
         50    1    1    2    0    0 -0.19811721050E-01 -0.99810740430E-02  0.28064871280E-02  0.50000500000E+01  0.50000000000E+01 0. -1.
         50    1    1    2    0    0  0.19811721050E-01  0.99810740430E-02 -0.28064871280E-02  0.50000500000E+01  0.50000000000E+01 0.  1.
</event>
<event>
 4    1  0.4967105E-021  0.5000050E+01  0.7818608E-02  0.2136455E+00
        -11   -1    0    0    0    0  0.00000000000E+00  0.00000000000E+00  0.50000499739E+01  0.50000500000E+01  0.51100000000E-03 0. -1.
         11   -1    0    0    0    0 -0.00000000000E+00 -0.00000000000E+00 -0.50000499739E+01  0.50000500000E+01  0.51100000000E-03 0.  1.
         50    1    1    2    0    0  0.11345195478E-01  0.16921067552E-01  0.92177281625E-02  0.50000500000E+01  0.50000000000E+01 0. -1.
         50    1    1    2    0    0 -0.11345195478E-01 -0.16921067552E-01 -0.92177281625E-02  0.50000500000E+01  0.50000000000E+01 0.  1.
</event>
<event>
 4    1  0.4967105E-021  0.5000050E+01  0.7818608E-02  0.2136455E+00
        -11   -1    0    0    0    0  0.00000000000E+00  0.00000000000E+00  0.50000499739E+01  0.50000500000E+01  0.51100000000E-03 0.  1.
         11   -1    0    0    0    0 -0.00000000000E+00 -0.00000000000E+00 -0.50000499739E+01  0.50000500000E+01  0.51100000000E-03 0. -1.
         50    1    1    2    0    0 -0.17640657042E-01 -0.13096057564E-01 -0.41596869368E-02  0.50000500000E+01  0.50000000000E+01 0. -1.
         50    1    1    2    0    0  0.17640657042E-01  0.13096057564E-01  0.41596869368E-02  0.50000500000E+01  0.50000000000E+01 0.  1.
</event>
<event>
 4    1  0.4967105E-021  0.5000050E+01  0.7818608E-02  0.2136455E+00
        -11   -1    0    0    0    0  0.00000000000E+00  0.00000000000E+00  0.50000499739E+01  0.50000500000E+01  0.51100000000E-03 0.  1.
         11   -1    0    0    0    0 -0.00000000000E+00 -0.00000000000E+00 -0.50000499739E+01  0.50000500000E+01  0.51100000000E-03 0. -1.
         50    1    1    2    0    0 -0.22060392488E-01  0.17528446989E-03  0.36484049436E-02  0.50000500000E+01  0.50000000000E+01 0.  1.
         50    1    1    2    0    0  0.22060392488E-01 -0.17528446989E-03 -0.36484049436E-02  0.50000500000E+01  0.50000000000E+01 0. -1.
</event>
<event>
 4    1  0.4967105E-021  0.5000050E+01  0.7818608E-02  0.2136455E+00
        -11   -1    0    0    0    0  0.00000000000E+00  0.00000000000E+00  0.50000499739E+01  0.50000500000E+01  0.51100000000E-03 0.  1.
         11   -1    0    0    0    0 -0.00000000000E+00 -0.00000000000E+00 -0.50000499739E+01  0.50000500000E+01  0.51100000000E-03 0. -1.
         50    1    1    2    0    0  0.44253339972E-02  0.18961533925E-01 -0.10994505456E-01  0.50000500000E+01  0.50000000000E+01 0. -1.
         50    1    1    2    0    0 -0.44253339972E-02 -0.18961533925E-01  0.10994505456E-01  0.50000500000E+01  0.50000000000E+01 0.  1.
</event>
<event>
 4    1  0.4967105E-021  0.5000050E+01  0.7818608E-02  0.2136455E+00
        -11   -1    0    0    0    0  0.00000000000E+00  0.00000000000E+00  0.50000499739E+01  0.50000500000E+01  0.51100000000E-03 0.  1.
         11   -1    0    0    0    0 -0.00000000000E+00 -0.00000000000E+00 -0.50000499739E+01  0.50000500000E+01  0.51100000000E-03 0. -1.
         50    1    1    2    0    0 -0.20152454048E-01  0.96784979737E-02 -0.45582104170E-03  0.50000500000E+01  0.50000000000E+01 0.  1.
         50    1    1    2    0    0  0.20152454048E-01 -0.96784979737E-02  0.45582104170E-03  0.50000500000E+01  0.50000000000E+01 0.  0.
</event>
<event>
 4    1  0.4967105E-021  0.5000050E+01  0.7818608E-02  0.2136455E+00
        -11   -1    0    0    0    0  0.00000000000E+00  0.00000000000E+00  0.50000499739E+01  0.50000500000E+01  0.51100000000E-03 0.  1.
         11   -1    0    0    0    0 -0.00000000000E+00 -0.00000000000E+00 -0.50000499739E+01  0.50000500000E+01  0.51100000000E-03 0. -1.
         50    1    1    2    0    0 -0.15117112341E-01 -0.16299785309E-01 -0.24067433117E-02  0.50000500000E+01  0.50000000000E+01 0.  1.
         50    1    1    2    0    0  0.15117112341E-01  0.16299785309E-01  0.24067433117E-02  0.50000500000E+01  0.50000000000E+01 0.  0.
</event>
<event>
 4    1  0.4967105E-021  0.5000050E+01  0.7818608E-02  0.2136455E+00
        -11   -1    0    0    0    0  0.00000000000E+00  0.00000000000E+00  0.50000499739E+01  0.50000500000E+01  0.51100000000E-03 0.  1.
         11   -1    0    0    0    0 -0.00000000000E+00 -0.00000000000E+00 -0.50000499739E+01  0.50000500000E+01  0.51100000000E-03 0. -1.
         50    1    1    2    0    0 -0.12207801575E-01  0.50693225583E-02  0.18035355541E-01  0.50000500000E+01  0.50000000000E+01 0.  1.
         50    1    1    2    0    0  0.12207801575E-01 -0.50693225583E-02 -0.18035355541E-01  0.50000500000E+01  0.50000000000E+01 0. -1.
</event>
<event>
 4    1  0.4967105E-021  0.5000050E+01  0.7818608E-02  0.2136455E+00
        -11   -1    0    0    0    0  0.00000000000E+00  0.00000000000E+00  0.50000499739E+01  0.50000500000E+01  0.51100000000E-03 0. -1.
         11   -1    0    0    0    0 -0.00000000000E+00 -0.00000000000E+00 -0.50000499739E+01  0.50000500000E+01  0.51100000000E-03 0.  1.
         50    1    1    2    0    0  0.81196315224E-02 -0.10021597342E-01 -0.18265860797E-01  0.50000500000E+01  0.50000000000E+01 0.  1.
         50    1    1    2    0    0 -0.81196315224E-02  0.10021597342E-01  0.18265860797E-01  0.50000500000E+01  0.50000000000E+01 0. -1.
</event>
<event>
 4    1  0.4967105E-021  0.5000050E+01  0.7818608E-02  0.2136455E+00
        -11   -1    0    0    0    0  0.00000000000E+00  0.00000000000E+00  0.50000499739E+01  0.50000500000E+01  0.51100000000E-03 0.  1.
         11   -1    0    0    0    0 -0.00000000000E+00 -0.00000000000E+00 -0.50000499739E+01  0.50000500000E+01  0.51100000000E-03 0. -1.
         50    1    1    2    0    0 -0.19644683523E-01 -0.83289759128E-02  0.66870822878E-02  0.50000500000E+01  0.50000000000E+01 0. -1.
         50    1    1    2    0    0  0.19644683523E-01  0.83289759128E-02 -0.66870822878E-02  0.50000500000E+01  0.50000000000E+01 0.  0.
</event>
<event>
 4    1  0.4967105E-021  0.5000050E+01  0.7818608E-02  0.2136455E+00
        -11   -1    0    0    0    0  0.00000000000E+00  0.00000000000E+00  0.50000499739E+01  0.50000500000E+01  0.51100000000E-03 0. -1.
         11   -1    0    0    0    0 -0.00000000000E+00 -0.00000000000E+00 -0.50000499739E+01  0.50000500000E+01  0.51100000000E-03 0.  1.
         50    1    1    2    0    0  0.18247133216E-01  0.71263121175E-02  0.10782407198E-01  0.50000500000E+01  0.50000000000E+01 0.  0.
         50    1    1    2    0    0 -0.18247133216E-01 -0.71263121175E-02 -0.10782407198E-01  0.50000500000E+01  0.50000000000E+01 0.  0.
</event>
<event>
 4    1  0.4967105E-021  0.5000050E+01  0.7818608E-02  0.2136455E+00
        -11   -1    0    0    0    0  0.00000000000E+00  0.00000000000E+00  0.50000499739E+01  0.50000500000E+01  0.51100000000E-03 0.  1.
         11   -1    0    0    0    0 -0.00000000000E+00 -0.00000000000E+00 -0.50000499739E+01  0.50000500000E+01  0.51100000000E-03 0. -1.
         50    1    1    2    0    0 -0.18550430147E-01  0.32097134294E-02  0.12065727539E-01  0.50000500000E+01  0.50000000000E+01 0. -1.
         50    1    1    2    0    0  0.18550430147E-01 -0.32097134294E-02 -0.12065727539E-01  0.50000500000E+01  0.50000000000E+01 0.  0.
</event>
<event>
 4    1  0.4967105E-021  0.5000050E+01  0.7818608E-02  0.2136455E+00
        -11   -1    0    0    0    0  0.00000000000E+00  0.00000000000E+00  0.50000499739E+01  0.50000500000E+01  0.51100000000E-03 0. -1.
         11   -1    0    0    0    0 -0.00000000000E+00 -0.00000000000E+00 -0.50000499739E+01  0.50000500000E+01  0.51100000000E-03 0.  1.
         50    1    1    2    0    0 -0.49959785298E-02  0.18587475245E-01 -0.11381935800E-01  0.50000500000E+01  0.50000000000E+01 0.  1.
         50    1    1    2    0    0  0.49959785298E-02 -0.18587475245E-01  0.11381935800E-01  0.50000500000E+01  0.50000000000E+01 0. -1.
</event>
<event>
 4    1  0.4967105E-021  0.5000050E+01  0.7818608E-02  0.2136455E+00
        -11   -1    0    0    0    0  0.00000000000E+00  0.00000000000E+00  0.50000499739E+01  0.50000500000E+01  0.51100000000E-03 0.  1.
         11   -1    0    0    0    0 -0.00000000000E+00 -0.00000000000E+00 -0.50000499739E+01  0.50000500000E+01  0.51100000000E-03 0. -1.
         50    1    1    2    0    0 -0.19071740633E-01 -0.43798323112E-02  0.10820733716E-01  0.50000500000E+01  0.50000000000E+01 0.  0.
         50    1    1    2    0    0  0.19071740633E-01  0.43798323112E-02 -0.10820733716E-01  0.50000500000E+01  0.50000000000E+01 0.  0.
</event>
<event>
 4    1  0.4967105E-021  0.5000050E+01  0.7818608E-02  0.2136455E+00
        -11   -1    0    0    0    0  0.00000000000E+00  0.00000000000E+00  0.50000499739E+01  0.50000500000E+01  0.51100000000E-03 0.  1.
         11   -1    0    0    0    0 -0.00000000000E+00 -0.00000000000E+00 -0.50000499739E+01  0.50000500000E+01  0.51100000000E-03 0. -1.
         50    1    1    2    0    0 -0.30412108068E-02  0.21347231499E-01  0.59202402106E-02  0.50000500000E+01  0.50000000000E+01 0.  1.
         50    1    1    2    0    0  0.30412108068E-02 -0.21347231499E-01 -0.59202402106E-02  0.50000500000E+01  0.50000000000E+01 0. -1.
</event>
<event>
 4    1  0.4967105E-021  0.5000050E+01  0.7818608E-02  0.2136455E+00
        -11   -1    0    0    0    0  0.00000000000E+00  0.00000000000E+00  0.50000499739E+01  0.50000500000E+01  0.51100000000E-03 0. -1.
         11   -1    0    0    0    0 -0.00000000000E+00 -0.00000000000E+00 -0.50000499739E+01  0.50000500000E+01  0.51100000000E-03 0.  1.
         50    1    1    2    0    0 -0.98535648238E-02  0.19770723457E-01 -0.34681773683E-02  0.50000500000E+01  0.50000000000E+01 0.  0.
         50    1    1    2    0    0  0.98535648238E-02 -0.19770723457E-01  0.34681773683E-02  0.50000500000E+01  0.50000000000E+01 0. -1.
</event>
<event>
 4    1  0.4967105E-021  0.5000050E+01  0.7818608E-02  0.2136455E+00
        -11   -1    0    0    0    0  0.00000000000E+00  0.00000000000E+00  0.50000499739E+01  0.50000500000E+01  0.51100000000E-03 0.  1.
         11   -1    0    0    0    0 -0.00000000000E+00 -0.00000000000E+00 -0.50000499739E+01  0.50000500000E+01  0.51100000000E-03 0. -1.
         50    1    1    2    0    0 -0.12670804557E-01 -0.18061163743E-01 -0.36397219812E-02  0.50000500000E+01  0.50000000000E+01 0.  0.
         50    1    1    2    0    0  0.12670804557E-01  0.18061163743E-01  0.36397219812E-02  0.50000500000E+01  0.50000000000E+01 0.  1.
</event>
<event>
 4    1  0.4967105E-021  0.5000050E+01  0.7818608E-02  0.2136455E+00
        -11   -1    0    0    0    0  0.00000000000E+00  0.00000000000E+00  0.50000499739E+01  0.50000500000E+01  0.51100000000E-03 0.  1.
         11   -1    0    0    0    0 -0.00000000000E+00 -0.00000000000E+00 -0.50000499739E+01  0.50000500000E+01  0.51100000000E-03 0. -1.
         50    1    1    2    0    0 -0.11913526861E-01  0.18271345479E-01  0.49222263383E-02  0.50000500000E+01  0.50000000000E+01 0.  1.
         50    1    1    2    0    0  0.11913526861E-01 -0.18271345479E-01 -0.49222263383E-02  0.50000500000E+01  0.50000000000E+01 0. -1.
</event>
<event>
 4    1  0.4967105E-021  0.5000050E+01  0.7818608E-02  0.2136455E+00
        -11   -1    0    0    0    0  0.00000000000E+00  0.00000000000E+00  0.50000499739E+01  0.50000500000E+01  0.51100000000E-03 0.  1.
         11   -1    0    0    0    0 -0.00000000000E+00 -0.00000000000E+00 -0.50000499739E+01  0.50000500000E+01  0.51100000000E-03 0. -1.
         50    1    1    2    0    0 -0.16507396790E-01 -0.10935730241E-01 -0.10388366345E-01  0.50000500000E+01  0.50000000000E+01 0. -1.
         50    1    1    2    0    0  0.16507396790E-01  0.10935730241E-01  0.10388366345E-01  0.50000500000E+01  0.50000000000E+01 0.  1.
</event>
<event>
 4    1  0.4967105E-021  0.5000050E+01  0.7818608E-02  0.2136455E+00
        -11   -1    0    0    0    0  0.00000000000E+00  0.00000000000E+00  0.50000499739E+01  0.50000500000E+01  0.51100000000E-03 0. -1.
         11   -1    0    0    0    0 -0.00000000000E+00 -0.00000000000E+00 -0.50000499739E+01  0.50000500000E+01  0.51100000000E-03 0.  1.
         50    1    1    2    0    0 -0.13556352921E-01  0.87114024800E-02  0.15502879162E-01  0.50000500000E+01  0.50000000000E+01 0.  0.
         50    1    1    2    0    0  0.13556352921E-01 -0.87114024800E-02 -0.15502879162E-01  0.50000500000E+01  0.50000000000E+01 0.  1.
</event>
<event>
 4    1  0.4967105E-021  0.5000050E+01  0.7818608E-02  0.2136455E+00
        -11   -1    0    0    0    0  0.00000000000E+00  0.00000000000E+00  0.50000499739E+01  0.50000500000E+01  0.51100000000E-03 0.  1.
         11   -1    0    0    0    0 -0.00000000000E+00 -0.00000000000E+00 -0.50000499739E+01  0.50000500000E+01  0.51100000000E-03 0. -1.
         50    1    1    2    0    0 -0.21115675233E-01  0.91364154339E-03 -0.73004122199E-02  0.50000500000E+01  0.50000000000E+01 0. -1.
         50    1    1    2    0    0  0.21115675233E-01 -0.91364154339E-03  0.73004122199E-02  0.50000500000E+01  0.50000000000E+01 0. -1.
</event>
<event>
 4    1  0.4967105E-021  0.5000050E+01  0.7818608E-02  0.2136455E+00
        -11   -1    0    0    0    0  0.00000000000E+00  0.00000000000E+00  0.50000499739E+01  0.50000500000E+01  0.51100000000E-03 0.  1.
         11   -1    0    0    0    0 -0.00000000000E+00 -0.00000000000E+00 -0.50000499739E+01  0.50000500000E+01  0.51100000000E-03 0. -1.
         50    1    1    2    0    0  0.70548029655E-02  0.91857499571E-02 -0.19127316927E-01  0.50000500000E+01  0.50000000000E+01 0. -1.
         50    1    1    2    0    0 -0.70548029655E-02 -0.91857499571E-02  0.19127316927E-01  0.50000500000E+01  0.50000000000E+01 0. -1.
</event>
<event>
 4    1  0.4967105E-021  0.5000050E+01  0.7818608E-02  0.2136455E+00
        -11   -1    0    0    0    0  0.00000000000E+00  0.00000000000E+00  0.50000499739E+01  0.50000500000E+01  0.51100000000E-03 0.  1.
         11   -1    0    0    0    0 -0.00000000000E+00 -0.00000000000E+00 -0.50000499739E+01  0.50000500000E+01  0.51100000000E-03 0. -1.
         50    1    1    2    0    0  0.15547354492E-01 -0.70297779435E-02 -0.14452144836E-01  0.50000500000E+01  0.50000000000E+01 0.  1.
         50    1    1    2    0    0 -0.15547354492E-01  0.70297779435E-02  0.14452144836E-01  0.50000500000E+01  0.50000000000E+01 0.  1.
</event>
<event>
 4    1  0.4967105E-021  0.5000050E+01  0.7818608E-02  0.2136455E+00
        -11   -1    0    0    0    0  0.00000000000E+00  0.00000000000E+00  0.50000499739E+01  0.50000500000E+01  0.51100000000E-03 0. -1.
         11   -1    0    0    0    0 -0.00000000000E+00 -0.00000000000E+00 -0.50000499739E+01  0.50000500000E+01  0.51100000000E-03 0.  1.
         50    1    1    2    0    0 -0.33367773670E-02  0.18215569036E-01  0.12532416426E-01  0.50000500000E+01  0.50000000000E+01 0.  1.
         50    1    1    2    0    0  0.33367773670E-02 -0.18215569036E-01 -0.12532416426E-01  0.50000500000E+01  0.50000000000E+01 0.  0.
</event>
<event>
 4    1  0.4967105E-021  0.5000050E+01  0.7818608E-02  0.2136455E+00
        -11   -1    0    0    0    0  0.00000000000E+00  0.00000000000E+00  0.50000499739E+01  0.50000500000E+01  0.51100000000E-03 0.  1.
         11   -1    0    0    0    0 -0.00000000000E+00 -0.00000000000E+00 -0.50000499739E+01  0.50000500000E+01  0.51100000000E-03 0. -1.
         50    1    1    2    0    0 -0.14928559986E-01  0.14206438590E-01 -0.86785770340E-02  0.50000500000E+01  0.50000000000E+01 0.  0.
         50    1    1    2    0    0  0.14928559986E-01 -0.14206438590E-01  0.86785770340E-02  0.50000500000E+01  0.50000000000E+01 0.  0.
</event>
<event>
 4    1  0.4967105E-021  0.5000050E+01  0.7818608E-02  0.2136455E+00
        -11   -1    0    0    0    0  0.00000000000E+00  0.00000000000E+00  0.50000499739E+01  0.50000500000E+01  0.51100000000E-03 0. -1.
         11   -1    0    0    0    0 -0.00000000000E+00 -0.00000000000E+00 -0.50000499739E+01  0.50000500000E+01  0.51100000000E-03 0.  1.
         50    1    1    2    0    0 -0.17787881799E-01 -0.13156963870E-01 -0.32385278798E-02  0.50000500000E+01  0.50000000000E+01 0.  0.
         50    1    1    2    0    0  0.17787881799E-01  0.13156963870E-01  0.32385278798E-02  0.50000500000E+01  0.50000000000E+01 0.  1.
</event>
<event>
 4    1  0.4967105E-021  0.5000050E+01  0.7818608E-02  0.2136455E+00
        -11   -1    0    0    0    0  0.00000000000E+00  0.00000000000E+00  0.50000499739E+01  0.50000500000E+01  0.51100000000E-03 0.  1.
         11   -1    0    0    0    0 -0.00000000000E+00 -0.00000000000E+00 -0.50000499739E+01  0.50000500000E+01  0.51100000000E-03 0. -1.
         50    1    1    2    0    0 -0.16955947637E-01  0.13502996022E-01 -0.54924892509E-02  0.50000500000E+01  0.50000000000E+01 0.  1.
         50    1    1    2    0    0  0.16955947637E-01 -0.13502996022E-01  0.54924892509E-02  0.50000500000E+01  0.50000000000E+01 0.  0.
</event>
<event>
 4    1  0.4967105E-021  0.5000050E+01  0.7818608E-02  0.2136455E+00
        -11   -1    0    0    0    0  0.00000000000E+00  0.00000000000E+00  0.50000499739E+01  0.50000500000E+01  0.51100000000E-03 0. -1.
         11   -1    0    0    0    0 -0.00000000000E+00 -0.00000000000E+00 -0.50000499739E+01  0.50000500000E+01  0.51100000000E-03 0.  1.
         50    1    1    2    0    0  0.57145418088E-02 -0.15889970805E-01  0.14657944595E-01  0.50000500000E+01  0.50000000000E+01 0. -1.
         50    1    1    2    0    0 -0.57145418088E-02  0.15889970805E-01 -0.14657944595E-01  0.50000500000E+01  0.50000000000E+01 0.  1.
</event>
<event>
 4    1  0.4967105E-021  0.5000050E+01  0.7818608E-02  0.2136455E+00
        -11   -1    0    0    0    0  0.00000000000E+00  0.00000000000E+00  0.50000499739E+01  0.50000500000E+01  0.51100000000E-03 0. -1.
         11   -1    0    0    0    0 -0.00000000000E+00 -0.00000000000E+00 -0.50000499739E+01  0.50000500000E+01  0.51100000000E-03 0.  1.
         50    1    1    2    0    0 -0.75859794455E-02 -0.10526983496E-01  0.18210931726E-01  0.50000500000E+01  0.50000000000E+01 0.  0.
         50    1    1    2    0    0  0.75859794455E-02  0.10526983496E-01 -0.18210931726E-01  0.50000500000E+01  0.50000000000E+01 0.  1.
</event>
<event>
 4    1  0.4967105E-021  0.5000050E+01  0.7818608E-02  0.2136455E+00
        -11   -1    0    0    0    0  0.00000000000E+00  0.00000000000E+00  0.50000499739E+01  0.50000500000E+01  0.51100000000E-03 0. -1.
         11   -1    0    0    0    0 -0.00000000000E+00 -0.00000000000E+00 -0.50000499739E+01  0.50000500000E+01  0.51100000000E-03 0.  1.
         50    1    1    2    0    0 -0.40498365942E-02  0.14770397744E-01  0.16292227412E-01  0.50000500000E+01  0.50000000000E+01 0. -1.
         50    1    1    2    0    0  0.40498365942E-02 -0.14770397744E-01 -0.16292227412E-01  0.50000500000E+01  0.50000000000E+01 0.  1.
</event>
<event>
 4    1  0.4967105E-021  0.5000050E+01  0.7818608E-02  0.2136455E+00
        -11   -1    0    0    0    0  0.00000000000E+00  0.00000000000E+00  0.50000499739E+01  0.50000500000E+01  0.51100000000E-03 0. -1.
         11   -1    0    0    0    0 -0.00000000000E+00 -0.00000000000E+00 -0.50000499739E+01  0.50000500000E+01  0.51100000000E-03 0.  1.
         50    1    1    2    0    0 -0.21884064126E-01  0.17378991672E-02 -0.42508756511E-02  0.50000500000E+01  0.50000000000E+01 0.  0.
         50    1    1    2    0    0  0.21884064126E-01 -0.17378991672E-02  0.42508756511E-02  0.50000500000E+01  0.50000000000E+01 0.  1.
</event>
<event>
 4    1  0.4967105E-021  0.5000050E+01  0.7818608E-02  0.2136455E+00
        -11   -1    0    0    0    0  0.00000000000E+00  0.00000000000E+00  0.50000499739E+01  0.50000500000E+01  0.51100000000E-03 0.  1.
         11   -1    0    0    0    0 -0.00000000000E+00 -0.00000000000E+00 -0.50000499739E+01  0.50000500000E+01  0.51100000000E-03 0. -1.
         50    1    1    2    0    0 -0.12351897145E-01 -0.16760107978E-01 -0.81567099668E-02  0.50000500000E+01  0.50000000000E+01 0.  0.
         50    1    1    2    0    0  0.12351897145E-01  0.16760107978E-01  0.81567099668E-02  0.50000500000E+01  0.50000000000E+01 0. -1.
</event>
<event>
 4    1  0.4967105E-021  0.5000050E+01  0.7818608E-02  0.2136455E+00
        -11   -1    0    0    0    0  0.00000000000E+00  0.00000000000E+00  0.50000499739E+01  0.50000500000E+01  0.51100000000E-03 0. -1.
         11   -1    0    0    0    0 -0.00000000000E+00 -0.00000000000E+00 -0.50000499739E+01  0.50000500000E+01  0.51100000000E-03 0.  1.
         50    1    1    2    0    0 -0.12624859663E-01 -0.18452806382E-01  0.33068883708E-03  0.50000500000E+01  0.50000000000E+01 0.  1.
         50    1    1    2    0    0  0.12624859663E-01  0.18452806382E-01 -0.33068883708E-03  0.50000500000E+01  0.50000000000E+01 0. -1.
</event>
<event>
 4    1  0.4967105E-021  0.5000050E+01  0.7818608E-02  0.2136455E+00
        -11   -1    0    0    0    0  0.00000000000E+00  0.00000000000E+00  0.50000499739E+01  0.50000500000E+01  0.51100000000E-03 0. -1.
         11   -1    0    0    0    0 -0.00000000000E+00 -0.00000000000E+00 -0.50000499739E+01  0.50000500000E+01  0.51100000000E-03 0.  1.
         50    1    1    2    0    0 -0.19468834731E-01  0.25685390477E-02 -0.10694371481E-01  0.50000500000E+01  0.50000000000E+01 0. -1.
         50    1    1    2    0    0  0.19468834731E-01 -0.25685390477E-02  0.10694371481E-01  0.50000500000E+01  0.50000000000E+01 0.  0.
</event>
<event>
 4    1  0.4967105E-021  0.5000050E+01  0.7818608E-02  0.2136455E+00
        -11   -1    0    0    0    0  0.00000000000E+00  0.00000000000E+00  0.50000499739E+01  0.50000500000E+01  0.51100000000E-03 0.  1.
         11   -1    0    0    0    0 -0.00000000000E+00 -0.00000000000E+00 -0.50000499739E+01  0.50000500000E+01  0.51100000000E-03 0. -1.
         50    1    1    2    0    0 -0.19969674468E-01  0.82082522990E-02 -0.58171467104E-02  0.50000500000E+01  0.50000000000E+01 0. -1.
         50    1    1    2    0    0  0.19969674468E-01 -0.82082522990E-02  0.58171467104E-02  0.50000500000E+01  0.50000000000E+01 0.  1.
</event>
<event>
 4    1  0.4967105E-021  0.5000050E+01  0.7818608E-02  0.2136455E+00
        -11   -1    0    0    0    0  0.00000000000E+00  0.00000000000E+00  0.50000499739E+01  0.50000500000E+01  0.51100000000E-03 0. -1.
         11   -1    0    0    0    0 -0.00000000000E+00 -0.00000000000E+00 -0.50000499739E+01  0.50000500000E+01  0.51100000000E-03 0.  1.
         50    1    1    2    0    0 -0.56380600496E-02 -0.73393717063E-02 -0.20355549657E-01  0.50000500000E+01  0.50000000000E+01 0.  1.
         50    1    1    2    0    0  0.56380600496E-02  0.73393717063E-02  0.20355549657E-01  0.50000500000E+01  0.50000000000E+01 0. -1.
</event>
<event>
 4    1  0.4967105E-021  0.5000050E+01  0.7818608E-02  0.2136455E+00
        -11   -1    0    0    0    0  0.00000000000E+00  0.00000000000E+00  0.50000499739E+01  0.50000500000E+01  0.51100000000E-03 0. -1.
         11   -1    0    0    0    0 -0.00000000000E+00 -0.00000000000E+00 -0.50000499739E+01  0.50000500000E+01  0.51100000000E-03 0.  1.
         50    1    1    2    0    0  0.28495843100E-03 -0.34521396344E-02 -0.22090813263E-01  0.50000500000E+01  0.50000000000E+01 0.  1.
         50    1    1    2    0    0 -0.28495843100E-03  0.34521396344E-02  0.22090813263E-01  0.50000500000E+01  0.50000000000E+01 0.  0.
</event>
<event>
 4    1  0.4967105E-021  0.5000050E+01  0.7818608E-02  0.2136455E+00
        -11   -1    0    0    0    0  0.00000000000E+00  0.00000000000E+00  0.50000499739E+01  0.50000500000E+01  0.51100000000E-03 0.  1.
         11   -1    0    0    0    0 -0.00000000000E+00 -0.00000000000E+00 -0.50000499739E+01  0.50000500000E+01  0.51100000000E-03 0. -1.
         50    1    1    2    0    0  0.41856211018E-02 -0.14576702185E-01 -0.16431762821E-01  0.50000500000E+01  0.50000000000E+01 0.  0.
         50    1    1    2    0    0 -0.41856211018E-02  0.14576702185E-01  0.16431762821E-01  0.50000500000E+01  0.50000000000E+01 0.  1.
</event>
<event>
 4    1  0.4967105E-021  0.5000050E+01  0.7818608E-02  0.2136455E+00
        -11   -1    0    0    0    0  0.00000000000E+00  0.00000000000E+00  0.50000499739E+01  0.50000500000E+01  0.51100000000E-03 0.  1.
         11   -1    0    0    0    0 -0.00000000000E+00 -0.00000000000E+00 -0.50000499739E+01  0.50000500000E+01  0.51100000000E-03 0. -1.
         50    1    1    2    0    0  0.66900639372E-02 -0.21132764536E-01 -0.29413955120E-02  0.50000500000E+01  0.50000000000E+01 0.  1.
         50    1    1    2    0    0 -0.66900639372E-02  0.21132764536E-01  0.29413955120E-02  0.50000500000E+01  0.50000000000E+01 0. -1.
</event>
<event>
 4    1  0.4967105E-021  0.5000050E+01  0.7818608E-02  0.2136455E+00
        -11   -1    0    0    0    0  0.00000000000E+00  0.00000000000E+00  0.50000499739E+01  0.50000500000E+01  0.51100000000E-03 0.  1.
         11   -1    0    0    0    0 -0.00000000000E+00 -0.00000000000E+00 -0.50000499739E+01  0.50000500000E+01  0.51100000000E-03 0. -1.
         50    1    1    2    0    0  0.15768095359E-01 -0.15812673856E-01 -0.11528288116E-02  0.50000500000E+01  0.50000000000E+01 0. -1.
         50    1    1    2    0    0 -0.15768095359E-01  0.15812673856E-01  0.11528288116E-02  0.50000500000E+01  0.50000000000E+01 0.  1.
</event>
<event>
 4    1  0.4967105E-021  0.5000050E+01  0.7818608E-02  0.2136455E+00
        -11   -1    0    0    0    0  0.00000000000E+00  0.00000000000E+00  0.50000499739E+01  0.50000500000E+01  0.51100000000E-03 0.  1.
         11   -1    0    0    0    0 -0.00000000000E+00 -0.00000000000E+00 -0.50000499739E+01  0.50000500000E+01  0.51100000000E-03 0. -1.
         50    1    1    2    0    0 -0.14788855401E-01 -0.11494298724E-01  0.12213654359E-01  0.50000500000E+01  0.50000000000E+01 0.  1.
         50    1    1    2    0    0  0.14788855401E-01  0.11494298724E-01 -0.12213654359E-01  0.50000500000E+01  0.50000000000E+01 0. -1.
</event>
<event>
 4    1  0.4967105E-021  0.5000050E+01  0.7818608E-02  0.2136455E+00
        -11   -1    0    0    0    0  0.00000000000E+00  0.00000000000E+00  0.50000499739E+01  0.50000500000E+01  0.51100000000E-03 0.  1.
         11   -1    0    0    0    0 -0.00000000000E+00 -0.00000000000E+00 -0.50000499739E+01  0.50000500000E+01  0.51100000000E-03 0. -1.
         50    1    1    2    0    0 -0.18009984958E-01  0.78391752116E-03  0.13229830503E-01  0.50000500000E+01  0.50000000000E+01 0.  0.
         50    1    1    2    0    0  0.18009984958E-01 -0.78391752116E-03 -0.13229830503E-01  0.50000500000E+01  0.50000000000E+01 0.  0.
</event>
<event>
 4    1  0.4967105E-021  0.5000050E+01  0.7818608E-02  0.2136455E+00
        -11   -1    0    0    0    0  0.00000000000E+00  0.00000000000E+00  0.50000499739E+01  0.50000500000E+01  0.51100000000E-03 0.  1.
         11   -1    0    0    0    0 -0.00000000000E+00 -0.00000000000E+00 -0.50000499739E+01  0.50000500000E+01  0.51100000000E-03 0. -1.
         50    1    1    2    0    0  0.24339747854E-02 -0.21219880612E-01 -0.66177740619E-02  0.50000500000E+01  0.50000000000E+01 0. -1.
         50    1    1    2    0    0 -0.24339747854E-02  0.21219880612E-01  0.66177740619E-02  0.50000500000E+01  0.50000000000E+01 0.  1.
</event>
<event>
 4    1  0.4967105E-021  0.5000050E+01  0.7818608E-02  0.2136455E+00
        -11   -1    0    0    0    0  0.00000000000E+00  0.00000000000E+00  0.50000499739E+01  0.50000500000E+01  0.51100000000E-03 0. -1.
         11   -1    0    0    0    0 -0.00000000000E+00 -0.00000000000E+00 -0.50000499739E+01  0.50000500000E+01  0.51100000000E-03 0.  1.
         50    1    1    2    0    0  0.75507995198E-02  0.14940646031E-01 -0.14824473778E-01  0.50000500000E+01  0.50000000000E+01 0.  0.
         50    1    1    2    0    0 -0.75507995198E-02 -0.14940646031E-01  0.14824473778E-01  0.50000500000E+01  0.50000000000E+01 0.  0.
</event>
<event>
 4    1  0.4967105E-021  0.5000050E+01  0.7818608E-02  0.2136455E+00
        -11   -1    0    0    0    0  0.00000000000E+00  0.00000000000E+00  0.50000499739E+01  0.50000500000E+01  0.51100000000E-03 0. -1.
         11   -1    0    0    0    0 -0.00000000000E+00 -0.00000000000E+00 -0.50000499739E+01  0.50000500000E+01  0.51100000000E-03 0.  1.
         50    1    1    2    0    0 -0.91631770020E-02 -0.49766472917E-02  0.19780588185E-01  0.50000500000E+01  0.50000000000E+01 0. -1.
         50    1    1    2    0    0  0.91631770020E-02  0.49766472917E-02 -0.19780588185E-01  0.50000500000E+01  0.50000000000E+01 0.  1.
</event>
<event>
 4    1  0.4967105E-021  0.5000050E+01  0.7818608E-02  0.2136455E+00
        -11   -1    0    0    0    0  0.00000000000E+00  0.00000000000E+00  0.50000499739E+01  0.50000500000E+01  0.51100000000E-03 0. -1.
         11   -1    0    0    0    0 -0.00000000000E+00 -0.00000000000E+00 -0.50000499739E+01  0.50000500000E+01  0.51100000000E-03 0.  1.
         50    1    1    2    0    0 -0.14513039298E-01  0.68884339737E-02 -0.15553895580E-01  0.50000500000E+01  0.50000000000E+01 0.  1.
         50    1    1    2    0    0  0.14513039298E-01 -0.68884339737E-02  0.15553895580E-01  0.50000500000E+01  0.50000000000E+01 0. -1.
</event>
<event>
 4    1  0.4967105E-021  0.5000050E+01  0.7818608E-02  0.2136455E+00
        -11   -1    0    0    0    0  0.00000000000E+00  0.00000000000E+00  0.50000499739E+01  0.50000500000E+01  0.51100000000E-03 0.  1.
         11   -1    0    0    0    0 -0.00000000000E+00 -0.00000000000E+00 -0.50000499739E+01  0.50000500000E+01  0.51100000000E-03 0. -1.
         50    1    1    2    0    0  0.41287192818E-02  0.20214317065E-01  0.86219233756E-02  0.50000500000E+01  0.50000000000E+01 0.  0.
         50    1    1    2    0    0 -0.41287192818E-02 -0.20214317065E-01 -0.86219233756E-02  0.50000500000E+01  0.50000000000E+01 0.  0.
</event>
<event>
 4    1  0.4967105E-021  0.5000050E+01  0.7818608E-02  0.2136455E+00
        -11   -1    0    0    0    0  0.00000000000E+00  0.00000000000E+00  0.50000499739E+01  0.50000500000E+01  0.51100000000E-03 0. -1.
         11   -1    0    0    0    0 -0.00000000000E+00 -0.00000000000E+00 -0.50000499739E+01  0.50000500000E+01  0.51100000000E-03 0.  1.
         50    1    1    2    0    0 -0.20168718058E-01 -0.70843456778E-02  0.65602864422E-02  0.50000500000E+01  0.50000000000E+01 0.  1.
         50    1    1    2    0    0  0.20168718058E-01  0.70843456778E-02 -0.65602864422E-02  0.50000500000E+01  0.50000000000E+01 0. -1.
</event>
<event>
 4    1  0.4967105E-021  0.5000050E+01  0.7818608E-02  0.2136455E+00
        -11   -1    0    0    0    0  0.00000000000E+00  0.00000000000E+00  0.50000499739E+01  0.50000500000E+01  0.51100000000E-03 0. -1.
         11   -1    0    0    0    0 -0.00000000000E+00 -0.00000000000E+00 -0.50000499739E+01  0.50000500000E+01  0.51100000000E-03 0.  1.
         50    1    1    2    0    0  0.19602405138E-01 -0.10720189486E-01  0.90870797259E-03  0.50000500000E+01  0.50000000000E+01 0.  0.
         50    1    1    2    0    0 -0.19602405138E-01  0.10720189486E-01 -0.90870797259E-03  0.50000500000E+01  0.50000000000E+01 0. -1.
</event>
<event>
 4    1  0.4967105E-021  0.5000050E+01  0.7818608E-02  0.2136455E+00
        -11   -1    0    0    0    0  0.00000000000E+00  0.00000000000E+00  0.50000499739E+01  0.50000500000E+01  0.51100000000E-03 0. -1.
         11   -1    0    0    0    0 -0.00000000000E+00 -0.00000000000E+00 -0.50000499739E+01  0.50000500000E+01  0.51100000000E-03 0.  1.
         50    1    1    2    0    0 -0.29971171848E-02 -0.75037422993E-02 -0.20849787531E-01  0.50000500000E+01  0.50000000000E+01 0.  1.
         50    1    1    2    0    0  0.29971171848E-02  0.75037422993E-02  0.20849787531E-01  0.50000500000E+01  0.50000000000E+01 0.  0.
</event>
<event>
 4    1  0.4967105E-021  0.5000050E+01  0.7818608E-02  0.2136455E+00
        -11   -1    0    0    0    0  0.00000000000E+00  0.00000000000E+00  0.50000499739E+01  0.50000500000E+01  0.51100000000E-03 0.  1.
         11   -1    0    0    0    0 -0.00000000000E+00 -0.00000000000E+00 -0.50000499739E+01  0.50000500000E+01  0.51100000000E-03 0. -1.
         50    1    1    2    0    0 -0.11539083151E-02  0.68115656182E-02  0.21266724464E-01  0.50000500000E+01  0.50000000000E+01 0.  1.
         50    1    1    2    0    0  0.11539083151E-02 -0.68115656182E-02 -0.21266724464E-01  0.50000500000E+01  0.50000000000E+01 0.  0.
</event>
<event>
 4    1  0.4967105E-021  0.5000050E+01  0.7818608E-02  0.2136455E+00
        -11   -1    0    0    0    0  0.00000000000E+00  0.00000000000E+00  0.50000499739E+01  0.50000500000E+01  0.51100000000E-03 0.  1.
         11   -1    0    0    0    0 -0.00000000000E+00 -0.00000000000E+00 -0.50000499739E+01  0.50000500000E+01  0.51100000000E-03 0. -1.
         50    1    1    2    0    0 -0.58484809675E-02 -0.20587587082E-01  0.64768069672E-02  0.50000500000E+01  0.50000000000E+01 0.  1.
         50    1    1    2    0    0  0.58484809675E-02  0.20587587082E-01 -0.64768069672E-02  0.50000500000E+01  0.50000000000E+01 0. -1.
</event>
<event>
 4    1  0.4967105E-021  0.5000050E+01  0.7818608E-02  0.2136455E+00
        -11   -1    0    0    0    0  0.00000000000E+00  0.00000000000E+00  0.50000499739E+01  0.50000500000E+01  0.51100000000E-03 0.  1.
         11   -1    0    0    0    0 -0.00000000000E+00 -0.00000000000E+00 -0.50000499739E+01  0.50000500000E+01  0.51100000000E-03 0. -1.
         50    1    1    2    0    0 -0.11420829867E-01 -0.12651208904E-01 -0.14474600458E-01  0.50000500000E+01  0.50000000000E+01 0. -1.
         50    1    1    2    0    0  0.11420829867E-01  0.12651208904E-01  0.14474600458E-01  0.50000500000E+01  0.50000000000E+01 0.  1.
</event>
<event>
 4    1  0.4967105E-021  0.5000050E+01  0.7818608E-02  0.2136455E+00
        -11   -1    0    0    0    0  0.00000000000E+00  0.00000000000E+00  0.50000499739E+01  0.50000500000E+01  0.51100000000E-03 0.  1.
         11   -1    0    0    0    0 -0.00000000000E+00 -0.00000000000E+00 -0.50000499739E+01  0.50000500000E+01  0.51100000000E-03 0. -1.
         50    1    1    2    0    0 -0.20149300463E-01 -0.55013416641E-02 -0.79839483183E-02  0.50000500000E+01  0.50000000000E+01 0.  0.
         50    1    1    2    0    0  0.20149300463E-01  0.55013416641E-02  0.79839483183E-02  0.50000500000E+01  0.50000000000E+01 0. -1.
</event>
<event>
 4    1  0.4967105E-021  0.5000050E+01  0.7818608E-02  0.2136455E+00
        -11   -1    0    0    0    0  0.00000000000E+00  0.00000000000E+00  0.50000499739E+01  0.50000500000E+01  0.51100000000E-03 0.  1.
         11   -1    0    0    0    0 -0.00000000000E+00 -0.00000000000E+00 -0.50000499739E+01  0.50000500000E+01  0.51100000000E-03 0. -1.
         50    1    1    2    0    0  0.74445588743E-02 -0.78656535276E-02  0.19563040095E-01  0.50000500000E+01  0.50000000000E+01 0.  0.
         50    1    1    2    0    0 -0.74445588743E-02  0.78656535276E-02 -0.19563040095E-01  0.50000500000E+01  0.50000000000E+01 0. -1.
</event>
<event>
 4    1  0.4967105E-021  0.5000050E+01  0.7818608E-02  0.2136455E+00
        -11   -1    0    0    0    0  0.00000000000E+00  0.00000000000E+00  0.50000499739E+01  0.50000500000E+01  0.51100000000E-03 0.  1.
         11   -1    0    0    0    0 -0.00000000000E+00 -0.00000000000E+00 -0.50000499739E+01  0.50000500000E+01  0.51100000000E-03 0. -1.
         50    1    1    2    0    0 -0.11212754116E-02 -0.20716768215E-01  0.83403091175E-02  0.50000500000E+01  0.50000000000E+01 0. -1.
         50    1    1    2    0    0  0.11212754116E-02  0.20716768215E-01 -0.83403091175E-02  0.50000500000E+01  0.50000000000E+01 0.  0.
</event>
<event>
 4    1  0.4967105E-021  0.5000050E+01  0.7818608E-02  0.2136455E+00
        -11   -1    0    0    0    0  0.00000000000E+00  0.00000000000E+00  0.50000499739E+01  0.50000500000E+01  0.51100000000E-03 0. -1.
         11   -1    0    0    0    0 -0.00000000000E+00 -0.00000000000E+00 -0.50000499739E+01  0.50000500000E+01  0.51100000000E-03 0.  1.
         50    1    1    2    0    0  0.40616482586E-02 -0.21858314982E-01  0.23915642510E-02  0.50000500000E+01  0.50000000000E+01 0. -1.
         50    1    1    2    0    0 -0.40616482586E-02  0.21858314982E-01 -0.23915642510E-02  0.50000500000E+01  0.50000000000E+01 0.  1.
</event>
<event>
 4    1  0.4967105E-021  0.5000050E+01  0.7818608E-02  0.2136455E+00
        -11   -1    0    0    0    0  0.00000000000E+00  0.00000000000E+00  0.50000499739E+01  0.50000500000E+01  0.51100000000E-03 0. -1.
         11   -1    0    0    0    0 -0.00000000000E+00 -0.00000000000E+00 -0.50000499739E+01  0.50000500000E+01  0.51100000000E-03 0.  1.
         50    1    1    2    0    0  0.19277316913E-01  0.18037097639E-02 -0.11186339156E-01  0.50000500000E+01  0.50000000000E+01 0.  1.
         50    1    1    2    0    0 -0.19277316913E-01 -0.18037097639E-02  0.11186339156E-01  0.50000500000E+01  0.50000000000E+01 0. -1.
</event>
<event>
 4    1  0.4967105E-021  0.5000050E+01  0.7818608E-02  0.2136455E+00
        -11   -1    0    0    0    0  0.00000000000E+00  0.00000000000E+00  0.50000499739E+01  0.50000500000E+01  0.51100000000E-03 0. -1.
         11   -1    0    0    0    0 -0.00000000000E+00 -0.00000000000E+00 -0.50000499739E+01  0.50000500000E+01  0.51100000000E-03 0.  1.
         50    1    1    2    0    0  0.11264042194E-02 -0.12492760731E-01 -0.18511203171E-01  0.50000500000E+01  0.50000000000E+01 0.  0.
         50    1    1    2    0    0 -0.11264042194E-02  0.12492760731E-01  0.18511203171E-01  0.50000500000E+01  0.50000000000E+01 0.  1.
</event>
<event>
 4    1  0.4967105E-021  0.5000050E+01  0.7818608E-02  0.2136455E+00
        -11   -1    0    0    0    0  0.00000000000E+00  0.00000000000E+00  0.50000499739E+01  0.50000500000E+01  0.51100000000E-03 0.  1.
         11   -1    0    0    0    0 -0.00000000000E+00 -0.00000000000E+00 -0.50000499739E+01  0.50000500000E+01  0.51100000000E-03 0. -1.
         50    1    1    2    0    0 -0.45234345105E-02 -0.21209164719E-01 -0.54509056255E-02  0.50000500000E+01  0.50000000000E+01 0.  0.
         50    1    1    2    0    0  0.45234345105E-02  0.21209164719E-01  0.54509056255E-02  0.50000500000E+01  0.50000000000E+01 0.  1.
</event>
<event>
 4    1  0.4967105E-021  0.5000050E+01  0.7818608E-02  0.2136455E+00
        -11   -1    0    0    0    0  0.00000000000E+00  0.00000000000E+00  0.50000499739E+01  0.50000500000E+01  0.51100000000E-03 0.  1.
         11   -1    0    0    0    0 -0.00000000000E+00 -0.00000000000E+00 -0.50000499739E+01  0.50000500000E+01  0.51100000000E-03 0. -1.
         50    1    1    2    0    0 -0.37025465910E-02 -0.20991537714E-01  0.67564038608E-02  0.50000500000E+01  0.50000000000E+01 0.  1.
         50    1    1    2    0    0  0.37025465910E-02  0.20991537714E-01 -0.67564038608E-02  0.50000500000E+01  0.50000000000E+01 0. -1.
</event>
<event>
 4    1  0.4967105E-021  0.5000050E+01  0.7818608E-02  0.2136455E+00
        -11   -1    0    0    0    0  0.00000000000E+00  0.00000000000E+00  0.50000499739E+01  0.50000500000E+01  0.51100000000E-03 0.  1.
         11   -1    0    0    0    0 -0.00000000000E+00 -0.00000000000E+00 -0.50000499739E+01  0.50000500000E+01  0.51100000000E-03 0. -1.
         50    1    1    2    0    0 -0.37110290755E-02 -0.15876519566E-01  0.15302512527E-01  0.50000500000E+01  0.50000000000E+01 0.  1.
         50    1    1    2    0    0  0.37110290755E-02  0.15876519566E-01 -0.15302512527E-01  0.50000500000E+01  0.50000000000E+01 0. -1.
</event>
<event>
 4    1  0.4967105E-021  0.5000050E+01  0.7818608E-02  0.2136455E+00
        -11   -1    0    0    0    0  0.00000000000E+00  0.00000000000E+00  0.50000499739E+01  0.50000500000E+01  0.51100000000E-03 0. -1.
         11   -1    0    0    0    0 -0.00000000000E+00 -0.00000000000E+00 -0.50000499739E+01  0.50000500000E+01  0.51100000000E-03 0.  1.
         50    1    1    2    0    0  0.83493468298E-02 -0.47864536500E-02  0.20183675804E-01  0.50000500000E+01  0.50000000000E+01 0. -1.
         50    1    1    2    0    0 -0.83493468298E-02  0.47864536500E-02 -0.20183675804E-01  0.50000500000E+01  0.50000000000E+01 0. -1.
</event>
<event>
 4    1  0.4967105E-021  0.5000050E+01  0.7818608E-02  0.2136455E+00
        -11   -1    0    0    0    0  0.00000000000E+00  0.00000000000E+00  0.50000499739E+01  0.50000500000E+01  0.51100000000E-03 0.  1.
         11   -1    0    0    0    0 -0.00000000000E+00 -0.00000000000E+00 -0.50000499739E+01  0.50000500000E+01  0.51100000000E-03 0. -1.
         50    1    1    2    0    0 -0.19870857293E-01 -0.10252567553E-01 -0.19075908371E-03  0.50000500000E+01  0.50000000000E+01 0.  1.
         50    1    1    2    0    0  0.19870857293E-01  0.10252567553E-01  0.19075908371E-03  0.50000500000E+01  0.50000000000E+01 0.  0.
</event>
<event>
 4    1  0.4967105E-021  0.5000050E+01  0.7818608E-02  0.2136455E+00
        -11   -1    0    0    0    0  0.00000000000E+00  0.00000000000E+00  0.50000499739E+01  0.50000500000E+01  0.51100000000E-03 0.  1.
         11   -1    0    0    0    0 -0.00000000000E+00 -0.00000000000E+00 -0.50000499739E+01  0.50000500000E+01  0.51100000000E-03 0. -1.
         50    1    1    2    0    0 -0.10701214559E-01 -0.18380896433E-01 -0.69013877801E-02  0.50000500000E+01  0.50000000000E+01 0.  1.
         50    1    1    2    0    0  0.10701214559E-01  0.18380896433E-01  0.69013877801E-02  0.50000500000E+01  0.50000000000E+01 0.  0.
</event>
<event>
 4    1  0.4967105E-021  0.5000050E+01  0.7818608E-02  0.2136455E+00
        -11   -1    0    0    0    0  0.00000000000E+00  0.00000000000E+00  0.50000499739E+01  0.50000500000E+01  0.51100000000E-03 0. -1.
         11   -1    0    0    0    0 -0.00000000000E+00 -0.00000000000E+00 -0.50000499739E+01  0.50000500000E+01  0.51100000000E-03 0.  1.
         50    1    1    2    0    0  0.21257742781E-01 -0.65630298787E-02 -0.22444399474E-02  0.50000500000E+01  0.50000000000E+01 0. -1.
         50    1    1    2    0    0 -0.21257742781E-01  0.65630298787E-02  0.22444399474E-02  0.50000500000E+01  0.50000000000E+01 0.  1.
</event>
<event>
 4    1  0.4967105E-021  0.5000050E+01  0.7818608E-02  0.2136455E+00
        -11   -1    0    0    0    0  0.00000000000E+00  0.00000000000E+00  0.50000499739E+01  0.50000500000E+01  0.51100000000E-03 0. -1.
         11   -1    0    0    0    0 -0.00000000000E+00 -0.00000000000E+00 -0.50000499739E+01  0.50000500000E+01  0.51100000000E-03 0.  1.
         50    1    1    2    0    0 -0.81485721775E-02  0.20574982690E-01 -0.32052080681E-02  0.50000500000E+01  0.50000000000E+01 0.  0.
         50    1    1    2    0    0  0.81485721775E-02 -0.20574982690E-01  0.32052080681E-02  0.50000500000E+01  0.50000000000E+01 0. -1.
</event>
<event>
 4    1  0.4967105E-021  0.5000050E+01  0.7818608E-02  0.2136455E+00
        -11   -1    0    0    0    0  0.00000000000E+00  0.00000000000E+00  0.50000499739E+01  0.50000500000E+01  0.51100000000E-03 0. -1.
         11   -1    0    0    0    0 -0.00000000000E+00 -0.00000000000E+00 -0.50000499739E+01  0.50000500000E+01  0.51100000000E-03 0.  1.
         50    1    1    2    0    0 -0.50455972663E-02 -0.16835724137E-01  0.13823995118E-01  0.50000500000E+01  0.50000000000E+01 0. -1.
         50    1    1    2    0    0  0.50455972663E-02  0.16835724137E-01 -0.13823995118E-01  0.50000500000E+01  0.50000000000E+01 0.  1.
</event>
<event>
 4    1  0.4967105E-021  0.5000050E+01  0.7818608E-02  0.2136455E+00
        -11   -1    0    0    0    0  0.00000000000E+00  0.00000000000E+00  0.50000499739E+01  0.50000500000E+01  0.51100000000E-03 0. -1.
         11   -1    0    0    0    0 -0.00000000000E+00 -0.00000000000E+00 -0.50000499739E+01  0.50000500000E+01  0.51100000000E-03 0.  1.
         50    1    1    2    0    0 -0.18216707482E-01  0.12582802285E-01 -0.31348293671E-02  0.50000500000E+01  0.50000000000E+01 0.  0.
         50    1    1    2    0    0  0.18216707482E-01 -0.12582802285E-01  0.31348293671E-02  0.50000500000E+01  0.50000000000E+01 0. -1.
</event>
<event>
 4    1  0.4967105E-021  0.5000050E+01  0.7818608E-02  0.2136455E+00
        -11   -1    0    0    0    0  0.00000000000E+00  0.00000000000E+00  0.50000499739E+01  0.50000500000E+01  0.51100000000E-03 0.  1.
         11   -1    0    0    0    0 -0.00000000000E+00 -0.00000000000E+00 -0.50000499739E+01  0.50000500000E+01  0.51100000000E-03 0. -1.
         50    1    1    2    0    0  0.11303349563E-01  0.12645392823E-01  0.14571576065E-01  0.50000500000E+01  0.50000000000E+01 0.  1.
         50    1    1    2    0    0 -0.11303349563E-01 -0.12645392823E-01 -0.14571576065E-01  0.50000500000E+01  0.50000000000E+01 0. -1.
</event>
<event>
 4    1  0.4967105E-021  0.5000050E+01  0.7818608E-02  0.2136455E+00
        -11   -1    0    0    0    0  0.00000000000E+00  0.00000000000E+00  0.50000499739E+01  0.50000500000E+01  0.51100000000E-03 0. -1.
         11   -1    0    0    0    0 -0.00000000000E+00 -0.00000000000E+00 -0.50000499739E+01  0.50000500000E+01  0.51100000000E-03 0.  1.
         50    1    1    2    0    0 -0.21409969819E-01 -0.66944656501E-04  0.64506752162E-02  0.50000500000E+01  0.50000000000E+01 0. -1.
         50    1    1    2    0    0  0.21409969819E-01  0.66944656501E-04 -0.64506752162E-02  0.50000500000E+01  0.50000000000E+01 0.  1.
</event>
<event>
 4    1  0.4967105E-021  0.5000050E+01  0.7818608E-02  0.2136455E+00
        -11   -1    0    0    0    0  0.00000000000E+00  0.00000000000E+00  0.50000499739E+01  0.50000500000E+01  0.51100000000E-03 0.  1.
         11   -1    0    0    0    0 -0.00000000000E+00 -0.00000000000E+00 -0.50000499739E+01  0.50000500000E+01  0.51100000000E-03 0. -1.
         50    1    1    2    0    0  0.15219136868E-01  0.47722956591E-02  0.15671808037E-01  0.50000500000E+01  0.50000000000E+01 0.  0.
         50    1    1    2    0    0 -0.15219136868E-01 -0.47722956591E-02 -0.15671808037E-01  0.50000500000E+01  0.50000000000E+01 0. -1.
</event>
<event>
 4    1  0.4967105E-021  0.5000050E+01  0.7818608E-02  0.2136455E+00
        -11   -1    0    0    0    0  0.00000000000E+00  0.00000000000E+00  0.50000499739E+01  0.50000500000E+01  0.51100000000E-03 0.  1.
         11   -1    0    0    0    0 -0.00000000000E+00 -0.00000000000E+00 -0.50000499739E+01  0.50000500000E+01  0.51100000000E-03 0. -1.
         50    1    1    2    0    0  0.13174627145E-01 -0.17865848019E-01 -0.26913145733E-02  0.50000500000E+01  0.50000000000E+01 0.  1.
         50    1    1    2    0    0 -0.13174627145E-01  0.17865848019E-01  0.26913145733E-02  0.50000500000E+01  0.50000000000E+01 0. -1.
</event>
<event>
 4    1  0.4967105E-021  0.5000050E+01  0.7818608E-02  0.2136455E+00
        -11   -1    0    0    0    0  0.00000000000E+00  0.00000000000E+00  0.50000499739E+01  0.50000500000E+01  0.51100000000E-03 0.  1.
         11   -1    0    0    0    0 -0.00000000000E+00 -0.00000000000E+00 -0.50000499739E+01  0.50000500000E+01  0.51100000000E-03 0. -1.
         50    1    1    2    0    0 -0.88280343858E-02 -0.51028359245E-02 -0.19900486788E-01  0.50000500000E+01  0.50000000000E+01 0.  0.
         50    1    1    2    0    0  0.88280343858E-02  0.51028359245E-02  0.19900486788E-01  0.50000500000E+01  0.50000000000E+01 0.  0.
</event>
<event>
 4    1  0.4967105E-021  0.5000050E+01  0.7818608E-02  0.2136455E+00
        -11   -1    0    0    0    0  0.00000000000E+00  0.00000000000E+00  0.50000499739E+01  0.50000500000E+01  0.51100000000E-03 0. -1.
         11   -1    0    0    0    0 -0.00000000000E+00 -0.00000000000E+00 -0.50000499739E+01  0.50000500000E+01  0.51100000000E-03 0.  1.
         50    1    1    2    0    0  0.70314936171E-02  0.39753460516E-02  0.20850832628E-01  0.50000500000E+01  0.50000000000E+01 0.  0.
         50    1    1    2    0    0 -0.70314936171E-02 -0.39753460516E-02 -0.20850832628E-01  0.50000500000E+01  0.50000000000E+01 0.  0.
</event>
<event>
 4    1  0.4967105E-021  0.5000050E+01  0.7818608E-02  0.2136455E+00
        -11   -1    0    0    0    0  0.00000000000E+00  0.00000000000E+00  0.50000499739E+01  0.50000500000E+01  0.51100000000E-03 0.  1.
         11   -1    0    0    0    0 -0.00000000000E+00 -0.00000000000E+00 -0.50000499739E+01  0.50000500000E+01  0.51100000000E-03 0. -1.
         50    1    1    2    0    0 -0.21184392350E-01 -0.65261565574E-03 -0.71272795357E-02  0.50000500000E+01  0.50000000000E+01 0. -1.
         50    1    1    2    0    0  0.21184392350E-01  0.65261565574E-03  0.71272795357E-02  0.50000500000E+01  0.50000000000E+01 0.  1.
</event>
<event>
 4    1  0.4967105E-021  0.5000050E+01  0.7818608E-02  0.2136455E+00
        -11   -1    0    0    0    0  0.00000000000E+00  0.00000000000E+00  0.50000499739E+01  0.50000500000E+01  0.51100000000E-03 0.  1.
         11   -1    0    0    0    0 -0.00000000000E+00 -0.00000000000E+00 -0.50000499739E+01  0.50000500000E+01  0.51100000000E-03 0. -1.
         50    1    1    2    0    0  0.16073032431E-01 -0.12605540065E-01  0.90972791624E-02  0.50000500000E+01  0.50000000000E+01 0.  1.
         50    1    1    2    0    0 -0.16073032431E-01  0.12605540065E-01 -0.90972791624E-02  0.50000500000E+01  0.50000000000E+01 0. -1.
</event>
<event>
 4    1  0.4967105E-021  0.5000050E+01  0.7818608E-02  0.2136455E+00
        -11   -1    0    0    0    0  0.00000000000E+00  0.00000000000E+00  0.50000499739E+01  0.50000500000E+01  0.51100000000E-03 0.  1.
         11   -1    0    0    0    0 -0.00000000000E+00 -0.00000000000E+00 -0.50000499739E+01  0.50000500000E+01  0.51100000000E-03 0. -1.
         50    1    1    2    0    0 -0.12098263136E-01  0.98805309111E-02 -0.16000301185E-01  0.50000500000E+01  0.50000000000E+01 0. -1.
         50    1    1    2    0    0  0.12098263136E-01 -0.98805309111E-02  0.16000301185E-01  0.50000500000E+01  0.50000000000E+01 0.  1.
</event>
<event>
 4    1  0.4967105E-021  0.5000050E+01  0.7818608E-02  0.2136455E+00
        -11   -1    0    0    0    0  0.00000000000E+00  0.00000000000E+00  0.50000499739E+01  0.50000500000E+01  0.51100000000E-03 0. -1.
         11   -1    0    0    0    0 -0.00000000000E+00 -0.00000000000E+00 -0.50000499739E+01  0.50000500000E+01  0.51100000000E-03 0.  1.
         50    1    1    2    0    0 -0.16756592748E-01  0.12969722601E-01  0.71418061540E-02  0.50000500000E+01  0.50000000000E+01 0.  0.
         50    1    1    2    0    0  0.16756592748E-01 -0.12969722601E-01 -0.71418061540E-02  0.50000500000E+01  0.50000000000E+01 0. -1.
</event>
<event>
 4    1  0.4967105E-021  0.5000050E+01  0.7818608E-02  0.2136455E+00
        -11   -1    0    0    0    0  0.00000000000E+00  0.00000000000E+00  0.50000499739E+01  0.50000500000E+01  0.51100000000E-03 0.  1.
         11   -1    0    0    0    0 -0.00000000000E+00 -0.00000000000E+00 -0.50000499739E+01  0.50000500000E+01  0.51100000000E-03 0. -1.
         50    1    1    2    0    0 -0.16982301150E-01  0.43253490355E-02  0.13888675365E-01  0.50000500000E+01  0.50000000000E+01 0.  1.
         50    1    1    2    0    0  0.16982301150E-01 -0.43253490355E-02 -0.13888675365E-01  0.50000500000E+01  0.50000000000E+01 0. -1.
</event>
<event>
 4    1  0.4967105E-021  0.5000050E+01  0.7818608E-02  0.2136455E+00
        -11   -1    0    0    0    0  0.00000000000E+00  0.00000000000E+00  0.50000499739E+01  0.50000500000E+01  0.51100000000E-03 0.  1.
         11   -1    0    0    0    0 -0.00000000000E+00 -0.00000000000E+00 -0.50000499739E+01  0.50000500000E+01  0.51100000000E-03 0. -1.
         50    1    1    2    0    0 -0.10019254502E-01  0.67739729717E-02  0.18807719942E-01  0.50000500000E+01  0.50000000000E+01 0.  1.
         50    1    1    2    0    0  0.10019254502E-01 -0.67739729717E-02 -0.18807719942E-01  0.50000500000E+01  0.50000000000E+01 0. -1.
</event>
<event>
 4    1  0.4967105E-021  0.5000050E+01  0.7818608E-02  0.2136455E+00
        -11   -1    0    0    0    0  0.00000000000E+00  0.00000000000E+00  0.50000499739E+01  0.50000500000E+01  0.51100000000E-03 0. -1.
         11   -1    0    0    0    0 -0.00000000000E+00 -0.00000000000E+00 -0.50000499739E+01  0.50000500000E+01  0.51100000000E-03 0.  1.
         50    1    1    2    0    0  0.88535931247E-03 -0.22222861026E-01 -0.23158339069E-02  0.50000500000E+01  0.50000000000E+01 0. -1.
         50    1    1    2    0    0 -0.88535931247E-03  0.22222861026E-01  0.23158339069E-02  0.50000500000E+01  0.50000000000E+01 0.  1.
</event>
<event>
 4    1  0.4967105E-021  0.5000050E+01  0.7818608E-02  0.2136455E+00
        -11   -1    0    0    0    0  0.00000000000E+00  0.00000000000E+00  0.50000499739E+01  0.50000500000E+01  0.51100000000E-03 0.  1.
         11   -1    0    0    0    0 -0.00000000000E+00 -0.00000000000E+00 -0.50000499739E+01  0.50000500000E+01  0.51100000000E-03 0. -1.
         50    1    1    2    0    0 -0.19416505987E-01  0.32021166822E-04 -0.11090571216E-01  0.50000500000E+01  0.50000000000E+01 0.  1.
         50    1    1    2    0    0  0.19416505987E-01 -0.32021166822E-04  0.11090571216E-01  0.50000500000E+01  0.50000000000E+01 0.  1.
</event>
<event>
 4    1  0.4967105E-021  0.5000050E+01  0.7818608E-02  0.2136455E+00
        -11   -1    0    0    0    0  0.00000000000E+00  0.00000000000E+00  0.50000499739E+01  0.50000500000E+01  0.51100000000E-03 0.  1.
         11   -1    0    0    0    0 -0.00000000000E+00 -0.00000000000E+00 -0.50000499739E+01  0.50000500000E+01  0.51100000000E-03 0. -1.
         50    1    1    2    0    0 -0.32569886402E-02  0.21464963828E-01 -0.53525557314E-02  0.50000500000E+01  0.50000000000E+01 0. -1.
         50    1    1    2    0    0  0.32569886402E-02 -0.21464963828E-01  0.53525557314E-02  0.50000500000E+01  0.50000000000E+01 0.  1.
</event>
<event>
 4    1  0.4967105E-021  0.5000050E+01  0.7818608E-02  0.2136455E+00
        -11   -1    0    0    0    0  0.00000000000E+00  0.00000000000E+00  0.50000499739E+01  0.50000500000E+01  0.51100000000E-03 0.  1.
         11   -1    0    0    0    0 -0.00000000000E+00 -0.00000000000E+00 -0.50000499739E+01  0.50000500000E+01  0.51100000000E-03 0. -1.
         50    1    1    2    0    0 -0.16594833739E-01 -0.11449058346E-01 -0.96712489458E-02  0.50000500000E+01  0.50000000000E+01 0.  0.
         50    1    1    2    0    0  0.16594833739E-01  0.11449058346E-01  0.96712489458E-02  0.50000500000E+01  0.50000000000E+01 0. -1.
</event>
<event>
 4    1  0.4967105E-021  0.5000050E+01  0.7818608E-02  0.2136455E+00
        -11   -1    0    0    0    0  0.00000000000E+00  0.00000000000E+00  0.50000499739E+01  0.50000500000E+01  0.51100000000E-03 0.  1.
         11   -1    0    0    0    0 -0.00000000000E+00 -0.00000000000E+00 -0.50000499739E+01  0.50000500000E+01  0.51100000000E-03 0. -1.
         50    1    1    2    0    0  0.92352528422E-02 -0.19526491946E-01 -0.57817572786E-02  0.50000500000E+01  0.50000000000E+01 0.  0.
         50    1    1    2    0    0 -0.92352528422E-02  0.19526491946E-01  0.57817572786E-02  0.50000500000E+01  0.50000000000E+01 0.  1.
</event>
<event>
 4    1  0.4967105E-021  0.5000050E+01  0.7818608E-02  0.2136455E+00
        -11   -1    0    0    0    0  0.00000000000E+00  0.00000000000E+00  0.50000499739E+01  0.50000500000E+01  0.51100000000E-03 0. -1.
         11   -1    0    0    0    0 -0.00000000000E+00 -0.00000000000E+00 -0.50000499739E+01  0.50000500000E+01  0.51100000000E-03 0.  1.
         50    1    1    2    0    0 -0.14271685331E-02 -0.20329109630E-01  0.92028795284E-02  0.50000500000E+01  0.50000000000E+01 0. -1.
         50    1    1    2    0    0  0.14271685331E-02  0.20329109630E-01 -0.92028795284E-02  0.50000500000E+01  0.50000000000E+01 0. -1.
</event>
<event>
 4    1  0.4967105E-021  0.5000050E+01  0.7818608E-02  0.2136455E+00
        -11   -1    0    0    0    0  0.00000000000E+00  0.00000000000E+00  0.50000499739E+01  0.50000500000E+01  0.51100000000E-03 0. -1.
         11   -1    0    0    0    0 -0.00000000000E+00 -0.00000000000E+00 -0.50000499739E+01  0.50000500000E+01  0.51100000000E-03 0.  1.
         50    1    1    2    0    0 -0.18692090580E-02 -0.13542960027E-01  0.17694541283E-01  0.50000500000E+01  0.50000000000E+01 0. -1.
         50    1    1    2    0    0  0.18692090580E-02  0.13542960027E-01 -0.17694541283E-01  0.50000500000E+01  0.50000000000E+01 0.  0.
</event>
<event>
 4    1  0.4967105E-021  0.5000050E+01  0.7818608E-02  0.2136455E+00
        -11   -1    0    0    0    0  0.00000000000E+00  0.00000000000E+00  0.50000499739E+01  0.50000500000E+01  0.51100000000E-03 0.  1.
         11   -1    0    0    0    0 -0.00000000000E+00 -0.00000000000E+00 -0.50000499739E+01  0.50000500000E+01  0.51100000000E-03 0. -1.
         50    1    1    2    0    0  0.16978571462E-01  0.46438944605E-02  0.13790027388E-01  0.50000500000E+01  0.50000000000E+01 0. -1.
         50    1    1    2    0    0 -0.16978571462E-01 -0.46438944605E-02 -0.13790027388E-01  0.50000500000E+01  0.50000000000E+01 0. -1.
</event>
<event>
 4    1  0.4967105E-021  0.5000050E+01  0.7818608E-02  0.2136455E+00
        -11   -1    0    0    0    0  0.00000000000E+00  0.00000000000E+00  0.50000499739E+01  0.50000500000E+01  0.51100000000E-03 0.  1.
         11   -1    0    0    0    0 -0.00000000000E+00 -0.00000000000E+00 -0.50000499739E+01  0.50000500000E+01  0.51100000000E-03 0. -1.
         50    1    1    2    0    0 -0.21586011745E-01  0.40794912710E-02 -0.41718518571E-02  0.50000500000E+01  0.50000000000E+01 0.  1.
         50    1    1    2    0    0  0.21586011745E-01 -0.40794912710E-02  0.41718518571E-02  0.50000500000E+01  0.50000000000E+01 0. -1.
</event>
<event>
 4    1  0.4967105E-021  0.5000050E+01  0.7818608E-02  0.2136455E+00
        -11   -1    0    0    0    0  0.00000000000E+00  0.00000000000E+00  0.50000499739E+01  0.50000500000E+01  0.51100000000E-03 0.  1.
         11   -1    0    0    0    0 -0.00000000000E+00 -0.00000000000E+00 -0.50000499739E+01  0.50000500000E+01  0.51100000000E-03 0. -1.
         50    1    1    2    0    0  0.14704217623E-02  0.21626281425E-01  0.54903835552E-02  0.50000500000E+01  0.50000000000E+01 0.  1.
         50    1    1    2    0    0 -0.14704217623E-02 -0.21626281425E-01 -0.54903835552E-02  0.50000500000E+01  0.50000000000E+01 0. -1.
</event>
<event>
 4    1  0.4967105E-021  0.5000050E+01  0.7818608E-02  0.2136455E+00
        -11   -1    0    0    0    0  0.00000000000E+00  0.00000000000E+00  0.50000499739E+01  0.50000500000E+01  0.51100000000E-03 0. -1.
         11   -1    0    0    0    0 -0.00000000000E+00 -0.00000000000E+00 -0.50000499739E+01  0.50000500000E+01  0.51100000000E-03 0.  1.
         50    1    1    2    0    0  0.28927076968E-02  0.84367825367E-02 -0.20505010183E-01  0.50000500000E+01  0.50000000000E+01 0.  1.
         50    1    1    2    0    0 -0.28927076968E-02 -0.84367825367E-02  0.20505010183E-01  0.50000500000E+01  0.50000000000E+01 0. -1.
</event>
<event>
 4    1  0.4967105E-021  0.5000050E+01  0.7818608E-02  0.2136455E+00
        -11   -1    0    0    0    0  0.00000000000E+00  0.00000000000E+00  0.50000499739E+01  0.50000500000E+01  0.51100000000E-03 0. -1.
         11   -1    0    0    0    0 -0.00000000000E+00 -0.00000000000E+00 -0.50000499739E+01  0.50000500000E+01  0.51100000000E-03 0.  1.
         50    1    1    2    0    0  0.12438020493E-01 -0.18325949857E-01  0.30753386888E-02  0.50000500000E+01  0.50000000000E+01 0. -1.
         50    1    1    2    0    0 -0.12438020493E-01  0.18325949857E-01 -0.30753386888E-02  0.50000500000E+01  0.50000000000E+01 0.  1.
</event>
<event>
 4    1  0.4967105E-021  0.5000050E+01  0.7818608E-02  0.2136455E+00
        -11   -1    0    0    0    0  0.00000000000E+00  0.00000000000E+00  0.50000499739E+01  0.50000500000E+01  0.51100000000E-03 0. -1.
         11   -1    0    0    0    0 -0.00000000000E+00 -0.00000000000E+00 -0.50000499739E+01  0.50000500000E+01  0.51100000000E-03 0.  1.
         50    1    1    2    0    0 -0.20327177295E-01 -0.90938473491E-02  0.20273883679E-02  0.50000500000E+01  0.50000000000E+01 0. -1.
         50    1    1    2    0    0  0.20327177295E-01  0.90938473491E-02 -0.20273883679E-02  0.50000500000E+01  0.50000000000E+01 0.  0.
</event>
<event>
 4    1  0.4967105E-021  0.5000050E+01  0.7818608E-02  0.2136455E+00
        -11   -1    0    0    0    0  0.00000000000E+00  0.00000000000E+00  0.50000499739E+01  0.50000500000E+01  0.51100000000E-03 0.  1.
         11   -1    0    0    0    0 -0.00000000000E+00 -0.00000000000E+00 -0.50000499739E+01  0.50000500000E+01  0.51100000000E-03 0. -1.
         50    1    1    2    0    0  0.27510920772E-02  0.21780829629E-01 -0.42461103434E-02  0.50000500000E+01  0.50000000000E+01 0.  1.
         50    1    1    2    0    0 -0.27510920772E-02 -0.21780829629E-01  0.42461103434E-02  0.50000500000E+01  0.50000000000E+01 0.  1.
</event>
<event>
 4    1  0.4967105E-021  0.5000050E+01  0.7818608E-02  0.2136455E+00
        -11   -1    0    0    0    0  0.00000000000E+00  0.00000000000E+00  0.50000499739E+01  0.50000500000E+01  0.51100000000E-03 0.  1.
         11   -1    0    0    0    0 -0.00000000000E+00 -0.00000000000E+00 -0.50000499739E+01  0.50000500000E+01  0.51100000000E-03 0. -1.
         50    1    1    2    0    0  0.47703661264E-02 -0.95095646580E-03 -0.21825255756E-01  0.50000500000E+01  0.50000000000E+01 0.  0.
         50    1    1    2    0    0 -0.47703661264E-02  0.95095646580E-03  0.21825255756E-01  0.50000500000E+01  0.50000000000E+01 0.  1.
</event>
<event>
 4    1  0.4967105E-021  0.5000050E+01  0.7818608E-02  0.2136455E+00
        -11   -1    0    0    0    0  0.00000000000E+00  0.00000000000E+00  0.50000499739E+01  0.50000500000E+01  0.51100000000E-03 0. -1.
         11   -1    0    0    0    0 -0.00000000000E+00 -0.00000000000E+00 -0.50000499739E+01  0.50000500000E+01  0.51100000000E-03 0.  1.
         50    1    1    2    0    0 -0.31902181282E-02  0.19208560635E-01 -0.10993461994E-01  0.50000500000E+01  0.50000000000E+01 0.  0.
         50    1    1    2    0    0  0.31902181282E-02 -0.19208560635E-01  0.10993461994E-01  0.50000500000E+01  0.50000000000E+01 0.  0.
</event>
<event>
 4    1  0.4967105E-021  0.5000050E+01  0.7818608E-02  0.2136455E+00
        -11   -1    0    0    0    0  0.00000000000E+00  0.00000000000E+00  0.50000499739E+01  0.50000500000E+01  0.51100000000E-03 0. -1.
         11   -1    0    0    0    0 -0.00000000000E+00 -0.00000000000E+00 -0.50000499739E+01  0.50000500000E+01  0.51100000000E-03 0.  1.
         50    1    1    2    0    0  0.19043823031E-01 -0.11708724070E-01  0.49100407858E-03  0.50000500000E+01  0.50000000000E+01 0. -1.
         50    1    1    2    0    0 -0.19043823031E-01  0.11708724070E-01 -0.49100407858E-03  0.50000500000E+01  0.50000000000E+01 0.  1.
</event>
<event>
 4    1  0.4967105E-021  0.5000050E+01  0.7818608E-02  0.2136455E+00
        -11   -1    0    0    0    0  0.00000000000E+00  0.00000000000E+00  0.50000499739E+01  0.50000500000E+01  0.51100000000E-03 0. -1.
         11   -1    0    0    0    0 -0.00000000000E+00 -0.00000000000E+00 -0.50000499739E+01  0.50000500000E+01  0.51100000000E-03 0.  1.
         50    1    1    2    0    0 -0.50070212401E-02  0.11795419579E-01  0.18324855123E-01  0.50000500000E+01  0.50000000000E+01 0.  0.
         50    1    1    2    0    0  0.50070212401E-02 -0.11795419579E-01 -0.18324855123E-01  0.50000500000E+01  0.50000000000E+01 0.  1.
</event>
<event>
 4    1  0.4967105E-021  0.5000050E+01  0.7818608E-02  0.2136455E+00
        -11   -1    0    0    0    0  0.00000000000E+00  0.00000000000E+00  0.50000499739E+01  0.50000500000E+01  0.51100000000E-03 0.  1.
         11   -1    0    0    0    0 -0.00000000000E+00 -0.00000000000E+00 -0.50000499739E+01  0.50000500000E+01  0.51100000000E-03 0. -1.
         50    1    1    2    0    0  0.22067168947E-01  0.32983952985E-02  0.14707627734E-02  0.50000500000E+01  0.50000000000E+01 0. -1.
         50    1    1    2    0    0 -0.22067168947E-01 -0.32983952985E-02 -0.14707627734E-02  0.50000500000E+01  0.50000000000E+01 0.  1.
</event>
<event>
 4    1  0.4967105E-021  0.5000050E+01  0.7818608E-02  0.2136455E+00
        -11   -1    0    0    0    0  0.00000000000E+00  0.00000000000E+00  0.50000499739E+01  0.50000500000E+01  0.51100000000E-03 0.  1.
         11   -1    0    0    0    0 -0.00000000000E+00 -0.00000000000E+00 -0.50000499739E+01  0.50000500000E+01  0.51100000000E-03 0. -1.
         50    1    1    2    0    0  0.91983949500E-03 -0.22077304918E-01  0.34276818465E-02  0.50000500000E+01  0.50000000000E+01 0.  0.
         50    1    1    2    0    0 -0.91983949500E-03  0.22077304918E-01 -0.34276818465E-02  0.50000500000E+01  0.50000000000E+01 0.  1.
</event>
<event>
 4    1  0.4967105E-021  0.5000050E+01  0.7818608E-02  0.2136455E+00
        -11   -1    0    0    0    0  0.00000000000E+00  0.00000000000E+00  0.50000499739E+01  0.50000500000E+01  0.51100000000E-03 0. -1.
         11   -1    0    0    0    0 -0.00000000000E+00 -0.00000000000E+00 -0.50000499739E+01  0.50000500000E+01  0.51100000000E-03 0.  1.
         50    1    1    2    0    0 -0.29448700250E-02  0.21384468020E-01 -0.58339324686E-02  0.50000500000E+01  0.50000000000E+01 0.  1.
         50    1    1    2    0    0  0.29448700250E-02 -0.21384468020E-01  0.58339324686E-02  0.50000500000E+01  0.50000000000E+01 0. -1.
</event>
<event>
 4    1  0.4967105E-021  0.5000050E+01  0.7818608E-02  0.2136455E+00
        -11   -1    0    0    0    0  0.00000000000E+00  0.00000000000E+00  0.50000499739E+01  0.50000500000E+01  0.51100000000E-03 0. -1.
         11   -1    0    0    0    0 -0.00000000000E+00 -0.00000000000E+00 -0.50000499739E+01  0.50000500000E+01  0.51100000000E-03 0.  1.
         50    1    1    2    0    0  0.11719871601E-01 -0.90311029848E-02 -0.16765628188E-01  0.50000500000E+01  0.50000000000E+01 0. -1.
         50    1    1    2    0    0 -0.11719871601E-01  0.90311029848E-02  0.16765628188E-01  0.50000500000E+01  0.50000000000E+01 0.  0.
</event>
<event>
 4    1  0.4967105E-021  0.5000050E+01  0.7818608E-02  0.2136455E+00
        -11   -1    0    0    0    0  0.00000000000E+00  0.00000000000E+00  0.50000499739E+01  0.50000500000E+01  0.51100000000E-03 0. -1.
         11   -1    0    0    0    0 -0.00000000000E+00 -0.00000000000E+00 -0.50000499739E+01  0.50000500000E+01  0.51100000000E-03 0.  1.
         50    1    1    2    0    0  0.20727526707E-01  0.78250236211E-02 -0.30234321433E-02  0.50000500000E+01  0.50000000000E+01 0.  1.
         50    1    1    2    0    0 -0.20727526707E-01 -0.78250236211E-02  0.30234321433E-02  0.50000500000E+01  0.50000000000E+01 0. -1.
</event>
<event>
 4    1  0.4967105E-021  0.5000050E+01  0.7818608E-02  0.2136455E+00
        -11   -1    0    0    0    0  0.00000000000E+00  0.00000000000E+00  0.50000499739E+01  0.50000500000E+01  0.51100000000E-03 0. -1.
         11   -1    0    0    0    0 -0.00000000000E+00 -0.00000000000E+00 -0.50000499739E+01  0.50000500000E+01  0.51100000000E-03 0.  1.
         50    1    1    2    0    0  0.17167748567E-01 -0.60605794527E-02  0.12982306646E-01  0.50000500000E+01  0.50000000000E+01 0.  0.
         50    1    1    2    0    0 -0.17167748567E-01  0.60605794527E-02 -0.12982306646E-01  0.50000500000E+01  0.50000000000E+01 0.  0.
</event>
<event>
 4    1  0.4967105E-021  0.5000050E+01  0.7818608E-02  0.2136455E+00
        -11   -1    0    0    0    0  0.00000000000E+00  0.00000000000E+00  0.50000499739E+01  0.50000500000E+01  0.51100000000E-03 0. -1.
         11   -1    0    0    0    0 -0.00000000000E+00 -0.00000000000E+00 -0.50000499739E+01  0.50000500000E+01  0.51100000000E-03 0.  1.
         50    1    1    2    0    0 -0.19721435583E-01 -0.89076717138E-02  0.56321277678E-02  0.50000500000E+01  0.50000000000E+01 0. -1.
         50    1    1    2    0    0  0.19721435583E-01  0.89076717138E-02 -0.56321277678E-02  0.50000500000E+01  0.50000000000E+01 0.  1.
</event>
<event>
 4    1  0.4967105E-021  0.5000050E+01  0.7818608E-02  0.2136455E+00
        -11   -1    0    0    0    0  0.00000000000E+00  0.00000000000E+00  0.50000499739E+01  0.50000500000E+01  0.51100000000E-03 0. -1.
         11   -1    0    0    0    0 -0.00000000000E+00 -0.00000000000E+00 -0.50000499739E+01  0.50000500000E+01  0.51100000000E-03 0.  1.
         50    1    1    2    0    0 -0.69855514848E-02 -0.20719868060E-01 -0.46788500735E-02  0.50000500000E+01  0.50000000000E+01 0.  1.
         50    1    1    2    0    0  0.69855514848E-02  0.20719868060E-01  0.46788500735E-02  0.50000500000E+01  0.50000000000E+01 0. -1.
</event>
<event>
 4    1  0.4967105E-021  0.5000050E+01  0.7818608E-02  0.2136455E+00
        -11   -1    0    0    0    0  0.00000000000E+00  0.00000000000E+00  0.50000499739E+01  0.50000500000E+01  0.51100000000E-03 0.  1.
         11   -1    0    0    0    0 -0.00000000000E+00 -0.00000000000E+00 -0.50000499739E+01  0.50000500000E+01  0.51100000000E-03 0. -1.
         50    1    1    2    0    0 -0.85488146785E-02 -0.16068541362E-01 -0.12989312764E-01  0.50000500000E+01  0.50000000000E+01 0. -1.
         50    1    1    2    0    0  0.85488146785E-02  0.16068541362E-01  0.12989312764E-01  0.50000500000E+01  0.50000000000E+01 0.  1.
</event>
<event>
 4    1  0.4967105E-021  0.5000050E+01  0.7818608E-02  0.2136455E+00
        -11   -1    0    0    0    0  0.00000000000E+00  0.00000000000E+00  0.50000499739E+01  0.50000500000E+01  0.51100000000E-03 0.  1.
         11   -1    0    0    0    0 -0.00000000000E+00 -0.00000000000E+00 -0.50000499739E+01  0.50000500000E+01  0.51100000000E-03 0. -1.
         50    1    1    2    0    0  0.60879111786E-02 -0.18243190225E-01 -0.11407271711E-01  0.50000500000E+01  0.50000000000E+01 0.  1.
         50    1    1    2    0    0 -0.60879111786E-02  0.18243190225E-01  0.11407271711E-01  0.50000500000E+01  0.50000000000E+01 0.  0.
</event>
<event>
 4    1  0.4967105E-021  0.5000050E+01  0.7818608E-02  0.2136455E+00
        -11   -1    0    0    0    0  0.00000000000E+00  0.00000000000E+00  0.50000499739E+01  0.50000500000E+01  0.51100000000E-03 0. -1.
         11   -1    0    0    0    0 -0.00000000000E+00 -0.00000000000E+00 -0.50000499739E+01  0.50000500000E+01  0.51100000000E-03 0.  1.
         50    1    1    2    0    0  0.15908000175E-01 -0.15396960400E-01  0.31419167525E-02  0.50000500000E+01  0.50000000000E+01 0. -1.
         50    1    1    2    0    0 -0.15908000175E-01  0.15396960400E-01 -0.31419167525E-02  0.50000500000E+01  0.50000000000E+01 0.  1.
</event>
<event>
 4    1  0.4967105E-021  0.5000050E+01  0.7818608E-02  0.2136455E+00
        -11   -1    0    0    0    0  0.00000000000E+00  0.00000000000E+00  0.50000499739E+01  0.50000500000E+01  0.51100000000E-03 0.  1.
         11   -1    0    0    0    0 -0.00000000000E+00 -0.00000000000E+00 -0.50000499739E+01  0.50000500000E+01  0.51100000000E-03 0. -1.
         50    1    1    2    0    0 -0.14425734519E-01 -0.16059206636E-01  0.58311719049E-02  0.50000500000E+01  0.50000000000E+01 0.  1.
         50    1    1    2    0    0  0.14425734519E-01  0.16059206636E-01 -0.58311719049E-02  0.50000500000E+01  0.50000000000E+01 0. -1.
</event>
<event>
 4    1  0.4967105E-021  0.5000050E+01  0.7818608E-02  0.2136455E+00
        -11   -1    0    0    0    0  0.00000000000E+00  0.00000000000E+00  0.50000499739E+01  0.50000500000E+01  0.51100000000E-03 0.  1.
         11   -1    0    0    0    0 -0.00000000000E+00 -0.00000000000E+00 -0.50000499739E+01  0.50000500000E+01  0.51100000000E-03 0. -1.
         50    1    1    2    0    0 -0.33090920782E-02 -0.17042461815E-01 -0.14092796205E-01  0.50000500000E+01  0.50000000000E+01 0.  0.
         50    1    1    2    0    0  0.33090920782E-02  0.17042461815E-01  0.14092796205E-01  0.50000500000E+01  0.50000000000E+01 0.  1.
</event>
<event>
 4    1  0.4967105E-021  0.5000050E+01  0.7818608E-02  0.2136455E+00
        -11   -1    0    0    0    0  0.00000000000E+00  0.00000000000E+00  0.50000499739E+01  0.50000500000E+01  0.51100000000E-03 0. -1.
         11   -1    0    0    0    0 -0.00000000000E+00 -0.00000000000E+00 -0.50000499739E+01  0.50000500000E+01  0.51100000000E-03 0.  1.
         50    1    1    2    0    0  0.60663268738E-02  0.20883722235E-01 -0.52031071365E-02  0.50000500000E+01  0.50000000000E+01 0. -1.
         50    1    1    2    0    0 -0.60663268738E-02 -0.20883722235E-01  0.52031071365E-02  0.50000500000E+01  0.50000000000E+01 0.  1.
</event>
<event>
 4    1  0.4967105E-021  0.5000050E+01  0.7818608E-02  0.2136455E+00
        -11   -1    0    0    0    0  0.00000000000E+00  0.00000000000E+00  0.50000499739E+01  0.50000500000E+01  0.51100000000E-03 0. -1.
         11   -1    0    0    0    0 -0.00000000000E+00 -0.00000000000E+00 -0.50000499739E+01  0.50000500000E+01  0.51100000000E-03 0.  1.
         50    1    1    2    0    0 -0.13353473389E-01  0.17859789006E-01  0.16477818699E-02  0.50000500000E+01  0.50000000000E+01 0. -1.
         50    1    1    2    0    0  0.13353473389E-01 -0.17859789006E-01 -0.16477818699E-02  0.50000500000E+01  0.50000000000E+01 0.  1.
</event>
<event>
 4    1  0.4967105E-021  0.5000050E+01  0.7818608E-02  0.2136455E+00
        -11   -1    0    0    0    0  0.00000000000E+00  0.00000000000E+00  0.50000499739E+01  0.50000500000E+01  0.51100000000E-03 0.  1.
         11   -1    0    0    0    0 -0.00000000000E+00 -0.00000000000E+00 -0.50000499739E+01  0.50000500000E+01  0.51100000000E-03 0. -1.
         50    1    1    2    0    0 -0.41405521086E-02  0.14249300029E-03 -0.21973575585E-01  0.50000500000E+01  0.50000000000E+01 0.  0.
         50    1    1    2    0    0  0.41405521086E-02 -0.14249300029E-03  0.21973575585E-01  0.50000500000E+01  0.50000000000E+01 0.  1.
</event>
<event>
 4    1  0.4967105E-021  0.5000050E+01  0.7818608E-02  0.2136455E+00
        -11   -1    0    0    0    0  0.00000000000E+00  0.00000000000E+00  0.50000499739E+01  0.50000500000E+01  0.51100000000E-03 0.  1.
         11   -1    0    0    0    0 -0.00000000000E+00 -0.00000000000E+00 -0.50000499739E+01  0.50000500000E+01  0.51100000000E-03 0. -1.
         50    1    1    2    0    0  0.12135008646E-01 -0.75236891423E-02  0.17208665458E-01  0.50000500000E+01  0.50000000000E+01 0.  1.
         50    1    1    2    0    0 -0.12135008646E-01  0.75236891423E-02 -0.17208665458E-01  0.50000500000E+01  0.50000000000E+01 0.  1.
</event>
<event>
 4    1  0.4967105E-021  0.5000050E+01  0.7818608E-02  0.2136455E+00
        -11   -1    0    0    0    0  0.00000000000E+00  0.00000000000E+00  0.50000499739E+01  0.50000500000E+01  0.51100000000E-03 0.  1.
         11   -1    0    0    0    0 -0.00000000000E+00 -0.00000000000E+00 -0.50000499739E+01  0.50000500000E+01  0.51100000000E-03 0. -1.
         50    1    1    2    0    0  0.16151875184E-01 -0.15426050541E-01 -0.10753570240E-02  0.50000500000E+01  0.50000000000E+01 0.  1.
         50    1    1    2    0    0 -0.16151875184E-01  0.15426050541E-01  0.10753570240E-02  0.50000500000E+01  0.50000000000E+01 0. -1.
</event>
<event>
 4    1  0.4967105E-021  0.5000050E+01  0.7818608E-02  0.2136455E+00
        -11   -1    0    0    0    0  0.00000000000E+00  0.00000000000E+00  0.50000499739E+01  0.50000500000E+01  0.51100000000E-03 0. -1.
         11   -1    0    0    0    0 -0.00000000000E+00 -0.00000000000E+00 -0.50000499739E+01  0.50000500000E+01  0.51100000000E-03 0.  1.
         50    1    1    2    0    0  0.15846220285E-01 -0.10313101050E-01  0.11939001190E-01  0.50000500000E+01  0.50000000000E+01 0.  1.
         50    1    1    2    0    0 -0.15846220285E-01  0.10313101050E-01 -0.11939001190E-01  0.50000500000E+01  0.50000000000E+01 0. -1.
</event>
<event>
 4    1  0.4967105E-021  0.5000050E+01  0.7818608E-02  0.2136455E+00
        -11   -1    0    0    0    0  0.00000000000E+00  0.00000000000E+00  0.50000499739E+01  0.50000500000E+01  0.51100000000E-03 0.  1.
         11   -1    0    0    0    0 -0.00000000000E+00 -0.00000000000E+00 -0.50000499739E+01  0.50000500000E+01  0.51100000000E-03 0. -1.
         50    1    1    2    0    0  0.44695905056E-02  0.48264792929E-02 -0.21371250744E-01  0.50000500000E+01  0.50000000000E+01 0.  0.
         50    1    1    2    0    0 -0.44695905056E-02 -0.48264792929E-02  0.21371250744E-01  0.50000500000E+01  0.50000000000E+01 0.  1.
</event>
<event>
 4    1  0.4967105E-021  0.5000050E+01  0.7818608E-02  0.2136455E+00
        -11   -1    0    0    0    0  0.00000000000E+00  0.00000000000E+00  0.50000499739E+01  0.50000500000E+01  0.51100000000E-03 0.  1.
         11   -1    0    0    0    0 -0.00000000000E+00 -0.00000000000E+00 -0.50000499739E+01  0.50000500000E+01  0.51100000000E-03 0. -1.
         50    1    1    2    0    0 -0.76753565005E-02 -0.20145153624E-01  0.59383657727E-02  0.50000500000E+01  0.50000000000E+01 0.  1.
         50    1    1    2    0    0  0.76753565005E-02  0.20145153624E-01 -0.59383657727E-02  0.50000500000E+01  0.50000000000E+01 0. -1.
</event>
<event>
 4    1  0.4967105E-021  0.5000050E+01  0.7818608E-02  0.2136455E+00
        -11   -1    0    0    0    0  0.00000000000E+00  0.00000000000E+00  0.50000499739E+01  0.50000500000E+01  0.51100000000E-03 0. -1.
         11   -1    0    0    0    0 -0.00000000000E+00 -0.00000000000E+00 -0.50000499739E+01  0.50000500000E+01  0.51100000000E-03 0.  1.
         50    1    1    2    0    0  0.46755549495E-02  0.20507059165E-01 -0.75896119990E-02  0.50000500000E+01  0.50000000000E+01 0.  0.
         50    1    1    2    0    0 -0.46755549495E-02 -0.20507059165E-01  0.75896119990E-02  0.50000500000E+01  0.50000000000E+01 0.  0.
</event>
<event>
 4    1  0.4967105E-021  0.5000050E+01  0.7818608E-02  0.2136455E+00
        -11   -1    0    0    0    0  0.00000000000E+00  0.00000000000E+00  0.50000499739E+01  0.50000500000E+01  0.51100000000E-03 0.  1.
         11   -1    0    0    0    0 -0.00000000000E+00 -0.00000000000E+00 -0.50000499739E+01  0.50000500000E+01  0.51100000000E-03 0. -1.
         50    1    1    2    0    0  0.21491022169E-01 -0.11555924964E-02 -0.60665535611E-02  0.50000500000E+01  0.50000000000E+01 0.  0.
         50    1    1    2    0    0 -0.21491022169E-01  0.11555924964E-02  0.60665535611E-02  0.50000500000E+01  0.50000000000E+01 0.  0.
</event>
<event>
 4    1  0.4967105E-021  0.5000050E+01  0.7818608E-02  0.2136455E+00
        -11   -1    0    0    0    0  0.00000000000E+00  0.00000000000E+00  0.50000499739E+01  0.50000500000E+01  0.51100000000E-03 0. -1.
         11   -1    0    0    0    0 -0.00000000000E+00 -0.00000000000E+00 -0.50000499739E+01  0.50000500000E+01  0.51100000000E-03 0.  1.
         50    1    1    2    0    0 -0.82467402069E-02  0.43898553627E-03  0.20779823571E-01  0.50000500000E+01  0.50000000000E+01 0. -1.
         50    1    1    2    0    0  0.82467402069E-02 -0.43898553627E-03 -0.20779823571E-01  0.50000500000E+01  0.50000000000E+01 0.  1.
</event>
<event>
 4    1  0.4967105E-021  0.5000050E+01  0.7818608E-02  0.2136455E+00
        -11   -1    0    0    0    0  0.00000000000E+00  0.00000000000E+00  0.50000499739E+01  0.50000500000E+01  0.51100000000E-03 0. -1.
         11   -1    0    0    0    0 -0.00000000000E+00 -0.00000000000E+00 -0.50000499739E+01  0.50000500000E+01  0.51100000000E-03 0.  1.
         50    1    1    2    0    0  0.15213841203E-01  0.13838041848E-01  0.87778205523E-02  0.50000500000E+01  0.50000000000E+01 0.  1.
         50    1    1    2    0    0 -0.15213841203E-01 -0.13838041848E-01 -0.87778205523E-02  0.50000500000E+01  0.50000000000E+01 0.  1.
</event>
<event>
 4    1  0.4967105E-021  0.5000050E+01  0.7818608E-02  0.2136455E+00
        -11   -1    0    0    0    0  0.00000000000E+00  0.00000000000E+00  0.50000499739E+01  0.50000500000E+01  0.51100000000E-03 0. -1.
         11   -1    0    0    0    0 -0.00000000000E+00 -0.00000000000E+00 -0.50000499739E+01  0.50000500000E+01  0.51100000000E-03 0.  1.
         50    1    1    2    0    0 -0.20689183287E-01 -0.58613423198E-02  0.61322802536E-02  0.50000500000E+01  0.50000000000E+01 0.  1.
         50    1    1    2    0    0  0.20689183287E-01  0.58613423198E-02 -0.61322802536E-02  0.50000500000E+01  0.50000000000E+01 0.  1.
</event>
<event>
 4    1  0.4967105E-021  0.5000050E+01  0.7818608E-02  0.2136455E+00
        -11   -1    0    0    0    0  0.00000000000E+00  0.00000000000E+00  0.50000499739E+01  0.50000500000E+01  0.51100000000E-03 0. -1.
         11   -1    0    0    0    0 -0.00000000000E+00 -0.00000000000E+00 -0.50000499739E+01  0.50000500000E+01  0.51100000000E-03 0.  1.
         50    1    1    2    0    0 -0.14121069330E-01  0.10539675342E-01  0.13766377325E-01  0.50000500000E+01  0.50000000000E+01 0.  0.
         50    1    1    2    0    0  0.14121069330E-01 -0.10539675342E-01 -0.13766377325E-01  0.50000500000E+01  0.50000000000E+01 0.  0.
</event>
<event>
 4    1  0.4967105E-021  0.5000050E+01  0.7818608E-02  0.2136455E+00
        -11   -1    0    0    0    0  0.00000000000E+00  0.00000000000E+00  0.50000499739E+01  0.50000500000E+01  0.51100000000E-03 0.  1.
         11   -1    0    0    0    0 -0.00000000000E+00 -0.00000000000E+00 -0.50000499739E+01  0.50000500000E+01  0.51100000000E-03 0. -1.
         50    1    1    2    0    0 -0.40841940431E-02 -0.19380271829E-01 -0.10379158099E-01  0.50000500000E+01  0.50000000000E+01 0. -1.
         50    1    1    2    0    0  0.40841940431E-02  0.19380271829E-01  0.10379158099E-01  0.50000500000E+01  0.50000000000E+01 0.  1.
</event>
<event>
 4    1  0.4967105E-021  0.5000050E+01  0.7818608E-02  0.2136455E+00
        -11   -1    0    0    0    0  0.00000000000E+00  0.00000000000E+00  0.50000499739E+01  0.50000500000E+01  0.51100000000E-03 0. -1.
         11   -1    0    0    0    0 -0.00000000000E+00 -0.00000000000E+00 -0.50000499739E+01  0.50000500000E+01  0.51100000000E-03 0.  1.
         50    1    1    2    0    0 -0.74961141919E-02  0.20991767106E-01  0.17766501626E-02  0.50000500000E+01  0.50000000000E+01 0.  1.
         50    1    1    2    0    0  0.74961141919E-02 -0.20991767106E-01 -0.17766501626E-02  0.50000500000E+01  0.50000000000E+01 0. -1.
</event>
<event>
 4    1  0.4967105E-021  0.5000050E+01  0.7818608E-02  0.2136455E+00
        -11   -1    0    0    0    0  0.00000000000E+00  0.00000000000E+00  0.50000499739E+01  0.50000500000E+01  0.51100000000E-03 0.  1.
         11   -1    0    0    0    0 -0.00000000000E+00 -0.00000000000E+00 -0.50000499739E+01  0.50000500000E+01  0.51100000000E-03 0. -1.
         50    1    1    2    0    0  0.53642921769E-02 -0.10062739074E-01  0.19234556188E-01  0.50000500000E+01  0.50000000000E+01 0.  1.
         50    1    1    2    0    0 -0.53642921769E-02  0.10062739074E-01 -0.19234556188E-01  0.50000500000E+01  0.50000000000E+01 0.  0.
</event>
<event>
 4    1  0.4967105E-021  0.5000050E+01  0.7818608E-02  0.2136455E+00
        -11   -1    0    0    0    0  0.00000000000E+00  0.00000000000E+00  0.50000499739E+01  0.50000500000E+01  0.51100000000E-03 0.  1.
         11   -1    0    0    0    0 -0.00000000000E+00 -0.00000000000E+00 -0.50000499739E+01  0.50000500000E+01  0.51100000000E-03 0. -1.
         50    1    1    2    0    0  0.82324404335E-02 -0.53140885019E-02  0.20099499693E-01  0.50000500000E+01  0.50000000000E+01 0.  1.
         50    1    1    2    0    0 -0.82324404335E-02  0.53140885019E-02 -0.20099499693E-01  0.50000500000E+01  0.50000000000E+01 0.  0.
</event>
<event>
 4    1  0.4967105E-021  0.5000050E+01  0.7818608E-02  0.2136455E+00
        -11   -1    0    0    0    0  0.00000000000E+00  0.00000000000E+00  0.50000499739E+01  0.50000500000E+01  0.51100000000E-03 0. -1.
         11   -1    0    0    0    0 -0.00000000000E+00 -0.00000000000E+00 -0.50000499739E+01  0.50000500000E+01  0.51100000000E-03 0.  1.
         50    1    1    2    0    0  0.70978809611E-02 -0.20580318510E-01  0.51061801647E-02  0.50000500000E+01  0.50000000000E+01 0. -1.
         50    1    1    2    0    0 -0.70978809611E-02  0.20580318510E-01 -0.51061801647E-02  0.50000500000E+01  0.50000000000E+01 0.  0.
</event>
<event>
 4    1  0.4967105E-021  0.5000050E+01  0.7818608E-02  0.2136455E+00
        -11   -1    0    0    0    0  0.00000000000E+00  0.00000000000E+00  0.50000499739E+01  0.50000500000E+01  0.51100000000E-03 0.  1.
         11   -1    0    0    0    0 -0.00000000000E+00 -0.00000000000E+00 -0.50000499739E+01  0.50000500000E+01  0.51100000000E-03 0. -1.
         50    1    1    2    0    0 -0.16096616269E-02  0.19304267178E-01 -0.11169456485E-01  0.50000500000E+01  0.50000000000E+01 0.  0.
         50    1    1    2    0    0  0.16096616269E-02 -0.19304267178E-01  0.11169456485E-01  0.50000500000E+01  0.50000000000E+01 0. -1.
</event>
<event>
 4    1  0.4967105E-021  0.5000050E+01  0.7818608E-02  0.2136455E+00
        -11   -1    0    0    0    0  0.00000000000E+00  0.00000000000E+00  0.50000499739E+01  0.50000500000E+01  0.51100000000E-03 0.  1.
         11   -1    0    0    0    0 -0.00000000000E+00 -0.00000000000E+00 -0.50000499739E+01  0.50000500000E+01  0.51100000000E-03 0. -1.
         50    1    1    2    0    0  0.20078187119E-01  0.60201097434E-02 -0.77863457860E-02  0.50000500000E+01  0.50000000000E+01 0. -1.
         50    1    1    2    0    0 -0.20078187119E-01 -0.60201097434E-02  0.77863457860E-02  0.50000500000E+01  0.50000000000E+01 0.  1.
</event>
<event>
 4    1  0.4967105E-021  0.5000050E+01  0.7818608E-02  0.2136455E+00
        -11   -1    0    0    0    0  0.00000000000E+00  0.00000000000E+00  0.50000499739E+01  0.50000500000E+01  0.51100000000E-03 0.  1.
         11   -1    0    0    0    0 -0.00000000000E+00 -0.00000000000E+00 -0.50000499739E+01  0.50000500000E+01  0.51100000000E-03 0. -1.
         50    1    1    2    0    0  0.50988555509E-03  0.69656160715E-02  0.21242003424E-01  0.50000500000E+01  0.50000000000E+01 0.  1.
         50    1    1    2    0    0 -0.50988555509E-03 -0.69656160715E-02 -0.21242003424E-01  0.50000500000E+01  0.50000000000E+01 0.  0.
</event>
<event>
 4    1  0.4967105E-021  0.5000050E+01  0.7818608E-02  0.2136455E+00
        -11   -1    0    0    0    0  0.00000000000E+00  0.00000000000E+00  0.50000499739E+01  0.50000500000E+01  0.51100000000E-03 0.  1.
         11   -1    0    0    0    0 -0.00000000000E+00 -0.00000000000E+00 -0.50000499739E+01  0.50000500000E+01  0.51100000000E-03 0. -1.
         50    1    1    2    0    0  0.19457938976E-01  0.85639107067E-02 -0.69318499843E-02  0.50000500000E+01  0.50000000000E+01 0. -1.
         50    1    1    2    0    0 -0.19457938976E-01 -0.85639107067E-02  0.69318499843E-02  0.50000500000E+01  0.50000000000E+01 0.  1.
</event>
<event>
 4    1  0.4967105E-021  0.5000050E+01  0.7818608E-02  0.2136455E+00
        -11   -1    0    0    0    0  0.00000000000E+00  0.00000000000E+00  0.50000499739E+01  0.50000500000E+01  0.51100000000E-03 0. -1.
         11   -1    0    0    0    0 -0.00000000000E+00 -0.00000000000E+00 -0.50000499739E+01  0.50000500000E+01  0.51100000000E-03 0.  1.
         50    1    1    2    0    0 -0.55749594378E-02 -0.99338137401E-02  0.19241664997E-01  0.50000500000E+01  0.50000000000E+01 0. -1.
         50    1    1    2    0    0  0.55749594378E-02  0.99338137401E-02 -0.19241664997E-01  0.50000500000E+01  0.50000000000E+01 0.  0.
</event>
<event>
 4    1  0.4967105E-021  0.5000050E+01  0.7818608E-02  0.2136455E+00
        -11   -1    0    0    0    0  0.00000000000E+00  0.00000000000E+00  0.50000499739E+01  0.50000500000E+01  0.51100000000E-03 0.  1.
         11   -1    0    0    0    0 -0.00000000000E+00 -0.00000000000E+00 -0.50000499739E+01  0.50000500000E+01  0.51100000000E-03 0. -1.
         50    1    1    2    0    0 -0.19094675851E-01  0.40693256826E-02 -0.10901212897E-01  0.50000500000E+01  0.50000000000E+01 0.  0.
         50    1    1    2    0    0  0.19094675851E-01 -0.40693256826E-02  0.10901212897E-01  0.50000500000E+01  0.50000000000E+01 0.  0.
</event>
<event>
 4    1  0.4967105E-021  0.5000050E+01  0.7818608E-02  0.2136455E+00
        -11   -1    0    0    0    0  0.00000000000E+00  0.00000000000E+00  0.50000499739E+01  0.50000500000E+01  0.51100000000E-03 0.  1.
         11   -1    0    0    0    0 -0.00000000000E+00 -0.00000000000E+00 -0.50000499739E+01  0.50000500000E+01  0.51100000000E-03 0. -1.
         50    1    1    2    0    0 -0.12776764173E-01 -0.12662344018E-01 -0.13282388385E-01  0.50000500000E+01  0.50000000000E+01 0. -1.
         50    1    1    2    0    0  0.12776764173E-01  0.12662344018E-01  0.13282388385E-01  0.50000500000E+01  0.50000000000E+01 0.  1.
</event>
<event>
 4    1  0.4967105E-021  0.5000050E+01  0.7818608E-02  0.2136455E+00
        -11   -1    0    0    0    0  0.00000000000E+00  0.00000000000E+00  0.50000499739E+01  0.50000500000E+01  0.51100000000E-03 0.  1.
         11   -1    0    0    0    0 -0.00000000000E+00 -0.00000000000E+00 -0.50000499739E+01  0.50000500000E+01  0.51100000000E-03 0. -1.
         50    1    1    2    0    0 -0.73892917464E-02  0.16988159601E-01 -0.12522112476E-01  0.50000500000E+01  0.50000000000E+01 0.  1.
         50    1    1    2    0    0  0.73892917464E-02 -0.16988159601E-01  0.12522112476E-01  0.50000500000E+01  0.50000000000E+01 0.  1.
</event>
<event>
 4    1  0.4967105E-021  0.5000050E+01  0.7818608E-02  0.2136455E+00
        -11   -1    0    0    0    0  0.00000000000E+00  0.00000000000E+00  0.50000499739E+01  0.50000500000E+01  0.51100000000E-03 0.  1.
         11   -1    0    0    0    0 -0.00000000000E+00 -0.00000000000E+00 -0.50000499739E+01  0.50000500000E+01  0.51100000000E-03 0. -1.
         50    1    1    2    0    0  0.20952635374E-01  0.32865962243E-02  0.70843387920E-02  0.50000500000E+01  0.50000000000E+01 0.  1.
         50    1    1    2    0    0 -0.20952635374E-01 -0.32865962243E-02 -0.70843387920E-02  0.50000500000E+01  0.50000000000E+01 0. -1.
</event>
<event>
 4    1  0.4967105E-021  0.5000050E+01  0.7818608E-02  0.2136455E+00
        -11   -1    0    0    0    0  0.00000000000E+00  0.00000000000E+00  0.50000499739E+01  0.50000500000E+01  0.51100000000E-03 0. -1.
         11   -1    0    0    0    0 -0.00000000000E+00 -0.00000000000E+00 -0.50000499739E+01  0.50000500000E+01  0.51100000000E-03 0.  1.
         50    1    1    2    0    0 -0.13990748486E-02  0.15484754277E-01  0.16070702366E-01  0.50000500000E+01  0.50000000000E+01 0.  1.
         50    1    1    2    0    0  0.13990748486E-02 -0.15484754277E-01 -0.16070702366E-01  0.50000500000E+01  0.50000000000E+01 0. -1.
</event>
<event>
 4    1  0.4967105E-021  0.5000050E+01  0.7818608E-02  0.2136455E+00
        -11   -1    0    0    0    0  0.00000000000E+00  0.00000000000E+00  0.50000499739E+01  0.50000500000E+01  0.51100000000E-03 0. -1.
         11   -1    0    0    0    0 -0.00000000000E+00 -0.00000000000E+00 -0.50000499739E+01  0.50000500000E+01  0.51100000000E-03 0.  1.
         50    1    1    2    0    0 -0.19228149074E-01  0.21433488179E-02 -0.11211014184E-01  0.50000500000E+01  0.50000000000E+01 0.  0.
         50    1    1    2    0    0  0.19228149074E-01 -0.21433488179E-02  0.11211014184E-01  0.50000500000E+01  0.50000000000E+01 0.  0.
</event>
<event>
 4    1  0.4967105E-021  0.5000050E+01  0.7818608E-02  0.2136455E+00
        -11   -1    0    0    0    0  0.00000000000E+00  0.00000000000E+00  0.50000499739E+01  0.50000500000E+01  0.51100000000E-03 0. -1.
         11   -1    0    0    0    0 -0.00000000000E+00 -0.00000000000E+00 -0.50000499739E+01  0.50000500000E+01  0.51100000000E-03 0.  1.
         50    1    1    2    0    0 -0.95484345065E-03 -0.16952704436E-01  0.14549796778E-01  0.50000500000E+01  0.50000000000E+01 0.  1.
         50    1    1    2    0    0  0.95484345065E-03  0.16952704436E-01 -0.14549796778E-01  0.50000500000E+01  0.50000000000E+01 0.  0.
</event>
<event>
 4    1  0.4967105E-021  0.5000050E+01  0.7818608E-02  0.2136455E+00
        -11   -1    0    0    0    0  0.00000000000E+00  0.00000000000E+00  0.50000499739E+01  0.50000500000E+01  0.51100000000E-03 0. -1.
         11   -1    0    0    0    0 -0.00000000000E+00 -0.00000000000E+00 -0.50000499739E+01  0.50000500000E+01  0.51100000000E-03 0.  1.
         50    1    1    2    0    0  0.79775866019E-02  0.38679026129E-02  0.20528028190E-01  0.50000500000E+01  0.50000000000E+01 0. -1.
         50    1    1    2    0    0 -0.79775866019E-02 -0.38679026129E-02 -0.20528028190E-01  0.50000500000E+01  0.50000000000E+01 0.  0.
</event>
<event>
 4    1  0.4967105E-021  0.5000050E+01  0.7818608E-02  0.2136455E+00
        -11   -1    0    0    0    0  0.00000000000E+00  0.00000000000E+00  0.50000499739E+01  0.50000500000E+01  0.51100000000E-03 0.  1.
         11   -1    0    0    0    0 -0.00000000000E+00 -0.00000000000E+00 -0.50000499739E+01  0.50000500000E+01  0.51100000000E-03 0. -1.
         50    1    1    2    0    0 -0.13678995279E-01 -0.33622014715E-02 -0.17366150680E-01  0.50000500000E+01  0.50000000000E+01 0. -1.
         50    1    1    2    0    0  0.13678995279E-01  0.33622014715E-02  0.17366150680E-01  0.50000500000E+01  0.50000000000E+01 0.  1.
</event>
<event>
 4    1  0.4967105E-021  0.5000050E+01  0.7818608E-02  0.2136455E+00
        -11   -1    0    0    0    0  0.00000000000E+00  0.00000000000E+00  0.50000499739E+01  0.50000500000E+01  0.51100000000E-03 0. -1.
         11   -1    0    0    0    0 -0.00000000000E+00 -0.00000000000E+00 -0.50000499739E+01  0.50000500000E+01  0.51100000000E-03 0.  1.
         50    1    1    2    0    0 -0.17655053272E-01 -0.38020379585E-02 -0.13185071153E-01  0.50000500000E+01  0.50000000000E+01 0. -1.
         50    1    1    2    0    0  0.17655053272E-01  0.38020379585E-02  0.13185071153E-01  0.50000500000E+01  0.50000000000E+01 0.  0.
</event>
<event>
 4    1  0.4967105E-021  0.5000050E+01  0.7818608E-02  0.2136455E+00
        -11   -1    0    0    0    0  0.00000000000E+00  0.00000000000E+00  0.50000499739E+01  0.50000500000E+01  0.51100000000E-03 0. -1.
         11   -1    0    0    0    0 -0.00000000000E+00 -0.00000000000E+00 -0.50000499739E+01  0.50000500000E+01  0.51100000000E-03 0.  1.
         50    1    1    2    0    0 -0.15890563914E-02  0.22236673267E-01 -0.17342899967E-02  0.50000500000E+01  0.50000000000E+01 0.  0.
         50    1    1    2    0    0  0.15890563914E-02 -0.22236673267E-01  0.17342899967E-02  0.50000500000E+01  0.50000000000E+01 0.  1.
</event>
<event>
 4    1  0.4967105E-021  0.5000050E+01  0.7818608E-02  0.2136455E+00
        -11   -1    0    0    0    0  0.00000000000E+00  0.00000000000E+00  0.50000499739E+01  0.50000500000E+01  0.51100000000E-03 0.  1.
         11   -1    0    0    0    0 -0.00000000000E+00 -0.00000000000E+00 -0.50000499739E+01  0.50000500000E+01  0.51100000000E-03 0. -1.
         50    1    1    2    0    0  0.10387618507E-01 -0.19025153868E-01  0.54903007250E-02  0.50000500000E+01  0.50000000000E+01 0.  1.
         50    1    1    2    0    0 -0.10387618507E-01  0.19025153868E-01 -0.54903007250E-02  0.50000500000E+01  0.50000000000E+01 0. -1.
</event>
<event>
 4    1  0.4967105E-021  0.5000050E+01  0.7818608E-02  0.2136455E+00
        -11   -1    0    0    0    0  0.00000000000E+00  0.00000000000E+00  0.50000499739E+01  0.50000500000E+01  0.51100000000E-03 0.  1.
         11   -1    0    0    0    0 -0.00000000000E+00 -0.00000000000E+00 -0.50000499739E+01  0.50000500000E+01  0.51100000000E-03 0. -1.
         50    1    1    2    0    0  0.36359868676E-03  0.84308038325E-02  0.20707289604E-01  0.50000500000E+01  0.50000000000E+01 0.  1.
         50    1    1    2    0    0 -0.36359868676E-03 -0.84308038325E-02 -0.20707289604E-01  0.50000500000E+01  0.50000000000E+01 0. -1.
</event>
<event>
 4    1  0.4967105E-021  0.5000050E+01  0.7818608E-02  0.2136455E+00
        -11   -1    0    0    0    0  0.00000000000E+00  0.00000000000E+00  0.50000499739E+01  0.50000500000E+01  0.51100000000E-03 0.  1.
         11   -1    0    0    0    0 -0.00000000000E+00 -0.00000000000E+00 -0.50000499739E+01  0.50000500000E+01  0.51100000000E-03 0. -1.
         50    1    1    2    0    0 -0.57330704793E-02  0.12952504736E-01 -0.17302225982E-01  0.50000500000E+01  0.50000000000E+01 0.  0.
         50    1    1    2    0    0  0.57330704793E-02 -0.12952504736E-01  0.17302225982E-01  0.50000500000E+01  0.50000000000E+01 0.  1.
</event>
<event>
 4    1  0.4967105E-021  0.5000050E+01  0.7818608E-02  0.2136455E+00
        -11   -1    0    0    0    0  0.00000000000E+00  0.00000000000E+00  0.50000499739E+01  0.50000500000E+01  0.51100000000E-03 0.  1.
         11   -1    0    0    0    0 -0.00000000000E+00 -0.00000000000E+00 -0.50000499739E+01  0.50000500000E+01  0.51100000000E-03 0. -1.
         50    1    1    2    0    0 -0.18612275569E-01  0.84605726334E-02 -0.90556285735E-02  0.50000500000E+01  0.50000000000E+01 0. -1.
         50    1    1    2    0    0  0.18612275569E-01 -0.84605726334E-02  0.90556285735E-02  0.50000500000E+01  0.50000000000E+01 0.  0.
</event>
<event>
 4    1  0.4967105E-021  0.5000050E+01  0.7818608E-02  0.2136455E+00
        -11   -1    0    0    0    0  0.00000000000E+00  0.00000000000E+00  0.50000499739E+01  0.50000500000E+01  0.51100000000E-03 0.  1.
         11   -1    0    0    0    0 -0.00000000000E+00 -0.00000000000E+00 -0.50000499739E+01  0.50000500000E+01  0.51100000000E-03 0. -1.
         50    1    1    2    0    0  0.79191904264E-02 -0.11556290050E-01 -0.17428169246E-01  0.50000500000E+01  0.50000000000E+01 0.  0.
         50    1    1    2    0    0 -0.79191904264E-02  0.11556290050E-01  0.17428169246E-01  0.50000500000E+01  0.50000000000E+01 0.  0.
</event>
<event>
 4    1  0.4967105E-021  0.5000050E+01  0.7818608E-02  0.2136455E+00
        -11   -1    0    0    0    0  0.00000000000E+00  0.00000000000E+00  0.50000499739E+01  0.50000500000E+01  0.51100000000E-03 0. -1.
         11   -1    0    0    0    0 -0.00000000000E+00 -0.00000000000E+00 -0.50000499739E+01  0.50000500000E+01  0.51100000000E-03 0.  1.
         50    1    1    2    0    0 -0.66042762976E-03  0.22282777007E-01  0.17447590707E-02  0.50000500000E+01  0.50000000000E+01 0.  1.
         50    1    1    2    0    0  0.66042762976E-03 -0.22282777007E-01 -0.17447590707E-02  0.50000500000E+01  0.50000000000E+01 0. -1.
</event>
<event>
 4    1  0.4967105E-021  0.5000050E+01  0.7818608E-02  0.2136455E+00
        -11   -1    0    0    0    0  0.00000000000E+00  0.00000000000E+00  0.50000499739E+01  0.50000500000E+01  0.51100000000E-03 0. -1.
         11   -1    0    0    0    0 -0.00000000000E+00 -0.00000000000E+00 -0.50000499739E+01  0.50000500000E+01  0.51100000000E-03 0.  1.
         50    1    1    2    0    0 -0.61246547195E-02 -0.21249509161E-01 -0.33089975819E-02  0.50000500000E+01  0.50000000000E+01 0. -1.
         50    1    1    2    0    0  0.61246547195E-02  0.21249509161E-01  0.33089975819E-02  0.50000500000E+01  0.50000000000E+01 0.  1.
</event>
<event>
 4    1  0.4967105E-021  0.5000050E+01  0.7818608E-02  0.2136455E+00
        -11   -1    0    0    0    0  0.00000000000E+00  0.00000000000E+00  0.50000499739E+01  0.50000500000E+01  0.51100000000E-03 0.  1.
         11   -1    0    0    0    0 -0.00000000000E+00 -0.00000000000E+00 -0.50000499739E+01  0.50000500000E+01  0.51100000000E-03 0. -1.
         50    1    1    2    0    0 -0.21002548655E-01 -0.45748450905E-02  0.61616752909E-02  0.50000500000E+01  0.50000000000E+01 0. -1.
         50    1    1    2    0    0  0.21002548655E-01  0.45748450905E-02 -0.61616752909E-02  0.50000500000E+01  0.50000000000E+01 0.  0.
</event>
<event>
 4    1  0.4967105E-021  0.5000050E+01  0.7818608E-02  0.2136455E+00
        -11   -1    0    0    0    0  0.00000000000E+00  0.00000000000E+00  0.50000499739E+01  0.50000500000E+01  0.51100000000E-03 0.  1.
         11   -1    0    0    0    0 -0.00000000000E+00 -0.00000000000E+00 -0.50000499739E+01  0.50000500000E+01  0.51100000000E-03 0. -1.
         50    1    1    2    0    0 -0.44752841505E-03  0.11602576794E-01  0.19109746991E-01  0.50000500000E+01  0.50000000000E+01 0.  0.
         50    1    1    2    0    0  0.44752841505E-03 -0.11602576794E-01 -0.19109746991E-01  0.50000500000E+01  0.50000000000E+01 0. -1.
</event>
<event>
 4    1  0.4967105E-021  0.5000050E+01  0.7818608E-02  0.2136455E+00
        -11   -1    0    0    0    0  0.00000000000E+00  0.00000000000E+00  0.50000499739E+01  0.50000500000E+01  0.51100000000E-03 0. -1.
         11   -1    0    0    0    0 -0.00000000000E+00 -0.00000000000E+00 -0.50000499739E+01  0.50000500000E+01  0.51100000000E-03 0.  1.
         50    1    1    2    0    0  0.13496523650E-01  0.36949928576E-02 -0.17441140362E-01  0.50000500000E+01  0.50000000000E+01 0.  1.
         50    1    1    2    0    0 -0.13496523650E-01 -0.36949928576E-02  0.17441140362E-01  0.50000500000E+01  0.50000000000E+01 0. -1.
</event>
<event>
 4    1  0.4967105E-021  0.5000050E+01  0.7818608E-02  0.2136455E+00
        -11   -1    0    0    0    0  0.00000000000E+00  0.00000000000E+00  0.50000499739E+01  0.50000500000E+01  0.51100000000E-03 0. -1.
         11   -1    0    0    0    0 -0.00000000000E+00 -0.00000000000E+00 -0.50000499739E+01  0.50000500000E+01  0.51100000000E-03 0.  1.
         50    1    1    2    0    0  0.13618246416E-01 -0.13999383835E-01  0.10888669194E-01  0.50000500000E+01  0.50000000000E+01 0.  0.
         50    1    1    2    0    0 -0.13618246416E-01  0.13999383835E-01 -0.10888669194E-01  0.50000500000E+01  0.50000000000E+01 0.  0.
</event>
<event>
 4    1  0.4967105E-021  0.5000050E+01  0.7818608E-02  0.2136455E+00
        -11   -1    0    0    0    0  0.00000000000E+00  0.00000000000E+00  0.50000499739E+01  0.50000500000E+01  0.51100000000E-03 0. -1.
         11   -1    0    0    0    0 -0.00000000000E+00 -0.00000000000E+00 -0.50000499739E+01  0.50000500000E+01  0.51100000000E-03 0.  1.
         50    1    1    2    0    0 -0.18748719153E-02  0.18792737161E-01  0.11971649230E-01  0.50000500000E+01  0.50000000000E+01 0.  0.
         50    1    1    2    0    0  0.18748719153E-02 -0.18792737161E-01 -0.11971649230E-01  0.50000500000E+01  0.50000000000E+01 0.  0.
</event>
<event>
 4    1  0.4967105E-021  0.5000050E+01  0.7818608E-02  0.2136455E+00
        -11   -1    0    0    0    0  0.00000000000E+00  0.00000000000E+00  0.50000499739E+01  0.50000500000E+01  0.51100000000E-03 0. -1.
         11   -1    0    0    0    0 -0.00000000000E+00 -0.00000000000E+00 -0.50000499739E+01  0.50000500000E+01  0.51100000000E-03 0.  1.
         50    1    1    2    0    0  0.14747557161E-01  0.15120826553E-01 -0.73397998697E-02  0.50000500000E+01  0.50000000000E+01 0.  0.
         50    1    1    2    0    0 -0.14747557161E-01 -0.15120826553E-01  0.73397998697E-02  0.50000500000E+01  0.50000000000E+01 0.  1.
</event>
<event>
 4    1  0.4967105E-021  0.5000050E+01  0.7818608E-02  0.2136455E+00
        -11   -1    0    0    0    0  0.00000000000E+00  0.00000000000E+00  0.50000499739E+01  0.50000500000E+01  0.51100000000E-03 0.  1.
         11   -1    0    0    0    0 -0.00000000000E+00 -0.00000000000E+00 -0.50000499739E+01  0.50000500000E+01  0.51100000000E-03 0. -1.
         50    1    1    2    0    0  0.36790232745E-02  0.19104014094E-01 -0.11022882256E-01  0.50000500000E+01  0.50000000000E+01 0.  0.
         50    1    1    2    0    0 -0.36790232745E-02 -0.19104014094E-01  0.11022882256E-01  0.50000500000E+01  0.50000000000E+01 0.  0.
</event>
<event>
 4    1  0.4967105E-021  0.5000050E+01  0.7818608E-02  0.2136455E+00
        -11   -1    0    0    0    0  0.00000000000E+00  0.00000000000E+00  0.50000499739E+01  0.50000500000E+01  0.51100000000E-03 0. -1.
         11   -1    0    0    0    0 -0.00000000000E+00 -0.00000000000E+00 -0.50000499739E+01  0.50000500000E+01  0.51100000000E-03 0.  1.
         50    1    1    2    0    0 -0.14523068187E-01 -0.11871578436E-01 -0.12171631602E-01  0.50000500000E+01  0.50000000000E+01 0. -1.
         50    1    1    2    0    0  0.14523068187E-01  0.11871578436E-01  0.12171631602E-01  0.50000500000E+01  0.50000000000E+01 0.  0.
</event>
<event>
 4    1  0.4967105E-021  0.5000050E+01  0.7818608E-02  0.2136455E+00
        -11   -1    0    0    0    0  0.00000000000E+00  0.00000000000E+00  0.50000499739E+01  0.50000500000E+01  0.51100000000E-03 0.  1.
         11   -1    0    0    0    0 -0.00000000000E+00 -0.00000000000E+00 -0.50000499739E+01  0.50000500000E+01  0.51100000000E-03 0. -1.
         50    1    1    2    0    0  0.15545583746E-01 -0.97470397497E-02 -0.12780162054E-01  0.50000500000E+01  0.50000000000E+01 0.  0.
         50    1    1    2    0    0 -0.15545583746E-01  0.97470397497E-02  0.12780162054E-01  0.50000500000E+01  0.50000000000E+01 0.  0.
</event>
<event>
 4    1  0.4967105E-021  0.5000050E+01  0.7818608E-02  0.2136455E+00
        -11   -1    0    0    0    0  0.00000000000E+00  0.00000000000E+00  0.50000499739E+01  0.50000500000E+01  0.51100000000E-03 0. -1.
         11   -1    0    0    0    0 -0.00000000000E+00 -0.00000000000E+00 -0.50000499739E+01  0.50000500000E+01  0.51100000000E-03 0.  1.
         50    1    1    2    0    0 -0.17895883591E-01 -0.11105761200E-01  0.75101210805E-02  0.50000500000E+01  0.50000000000E+01 0.  1.
         50    1    1    2    0    0  0.17895883591E-01  0.11105761200E-01 -0.75101210805E-02  0.50000500000E+01  0.50000000000E+01 0.  0.
</event>
<event>
 4    1  0.4967105E-021  0.5000050E+01  0.7818608E-02  0.2136455E+00
        -11   -1    0    0    0    0  0.00000000000E+00  0.00000000000E+00  0.50000499739E+01  0.50000500000E+01  0.51100000000E-03 0.  1.
         11   -1    0    0    0    0 -0.00000000000E+00 -0.00000000000E+00 -0.50000499739E+01  0.50000500000E+01  0.51100000000E-03 0. -1.
         50    1    1    2    0    0 -0.85689751524E-02 -0.14966981274E-01 -0.14232520380E-01  0.50000500000E+01  0.50000000000E+01 0. -1.
         50    1    1    2    0    0  0.85689751524E-02  0.14966981274E-01  0.14232520380E-01  0.50000500000E+01  0.50000000000E+01 0.  1.
</event>
<event>
 4    1  0.4967105E-021  0.5000050E+01  0.7818608E-02  0.2136455E+00
        -11   -1    0    0    0    0  0.00000000000E+00  0.00000000000E+00  0.50000499739E+01  0.50000500000E+01  0.51100000000E-03 0.  1.
         11   -1    0    0    0    0 -0.00000000000E+00 -0.00000000000E+00 -0.50000499739E+01  0.50000500000E+01  0.51100000000E-03 0. -1.
         50    1    1    2    0    0 -0.10743306074E-01  0.15693169751E-01 -0.11760454828E-01  0.50000500000E+01  0.50000000000E+01 0.  0.
         50    1    1    2    0    0  0.10743306074E-01 -0.15693169751E-01  0.11760454828E-01  0.50000500000E+01  0.50000000000E+01 0. -1.
</event>
<event>
 4    1  0.4967105E-021  0.5000050E+01  0.7818608E-02  0.2136455E+00
        -11   -1    0    0    0    0  0.00000000000E+00  0.00000000000E+00  0.50000499739E+01  0.50000500000E+01  0.51100000000E-03 0. -1.
         11   -1    0    0    0    0 -0.00000000000E+00 -0.00000000000E+00 -0.50000499739E+01  0.50000500000E+01  0.51100000000E-03 0.  1.
         50    1    1    2    0    0 -0.13044702496E-02  0.79907493616E-02 -0.20843434986E-01  0.50000500000E+01  0.50000000000E+01 0.  1.
         50    1    1    2    0    0  0.13044702496E-02 -0.79907493616E-02  0.20843434986E-01  0.50000500000E+01  0.50000000000E+01 0.  0.
</event>
<event>
 4    1  0.4967105E-021  0.5000050E+01  0.7818608E-02  0.2136455E+00
        -11   -1    0    0    0    0  0.00000000000E+00  0.00000000000E+00  0.50000499739E+01  0.50000500000E+01  0.51100000000E-03 0.  1.
         11   -1    0    0    0    0 -0.00000000000E+00 -0.00000000000E+00 -0.50000499739E+01  0.50000500000E+01  0.51100000000E-03 0. -1.
         50    1    1    2    0    0 -0.59001879667E-02 -0.20533712070E-01  0.65997689785E-02  0.50000500000E+01  0.50000000000E+01 0.  0.
         50    1    1    2    0    0  0.59001879667E-02  0.20533712070E-01 -0.65997689785E-02  0.50000500000E+01  0.50000000000E+01 0.  1.
</event>
<event>
 4    1  0.4967105E-021  0.5000050E+01  0.7818608E-02  0.2136455E+00
        -11   -1    0    0    0    0  0.00000000000E+00  0.00000000000E+00  0.50000499739E+01  0.50000500000E+01  0.51100000000E-03 0. -1.
         11   -1    0    0    0    0 -0.00000000000E+00 -0.00000000000E+00 -0.50000499739E+01  0.50000500000E+01  0.51100000000E-03 0.  1.
         50    1    1    2    0    0  0.10789121441E-01  0.10124877622E-01 -0.16765566249E-01  0.50000500000E+01  0.50000000000E+01 0.  1.
         50    1    1    2    0    0 -0.10789121441E-01 -0.10124877622E-01  0.16765566249E-01  0.50000500000E+01  0.50000000000E+01 0. -1.
</event>
<event>
 4    1  0.4967105E-021  0.5000050E+01  0.7818608E-02  0.2136455E+00
        -11   -1    0    0    0    0  0.00000000000E+00  0.00000000000E+00  0.50000499739E+01  0.50000500000E+01  0.51100000000E-03 0. -1.
         11   -1    0    0    0    0 -0.00000000000E+00 -0.00000000000E+00 -0.50000499739E+01  0.50000500000E+01  0.51100000000E-03 0.  1.
         50    1    1    2    0    0  0.68189096700E-03 -0.19902587101E-01  0.10169786202E-01  0.50000500000E+01  0.50000000000E+01 0.  0.
         50    1    1    2    0    0 -0.68189096700E-03  0.19902587101E-01 -0.10169786202E-01  0.50000500000E+01  0.50000000000E+01 0.  0.
</event>
<event>
 4    1  0.4967105E-021  0.5000050E+01  0.7818608E-02  0.2136455E+00
        -11   -1    0    0    0    0  0.00000000000E+00  0.00000000000E+00  0.50000499739E+01  0.50000500000E+01  0.51100000000E-03 0. -1.
         11   -1    0    0    0    0 -0.00000000000E+00 -0.00000000000E+00 -0.50000499739E+01  0.50000500000E+01  0.51100000000E-03 0.  1.
         50    1    1    2    0    0 -0.13117724589E-01 -0.13830959193E-01 -0.11688984960E-01  0.50000500000E+01  0.50000000000E+01 0.  0.
         50    1    1    2    0    0  0.13117724589E-01  0.13830959193E-01  0.11688984960E-01  0.50000500000E+01  0.50000000000E+01 0.  1.
</event>
<event>
 4    1  0.4967105E-021  0.5000050E+01  0.7818608E-02  0.2136455E+00
        -11   -1    0    0    0    0  0.00000000000E+00  0.00000000000E+00  0.50000499739E+01  0.50000500000E+01  0.51100000000E-03 0. -1.
         11   -1    0    0    0    0 -0.00000000000E+00 -0.00000000000E+00 -0.50000499739E+01  0.50000500000E+01  0.51100000000E-03 0.  1.
         50    1    1    2    0    0 -0.40622808733E-02  0.21883224112E-01  0.21505526236E-02  0.50000500000E+01  0.50000000000E+01 0.  1.
         50    1    1    2    0    0  0.40622808733E-02 -0.21883224112E-01 -0.21505526236E-02  0.50000500000E+01  0.50000000000E+01 0.  0.
</event>
<event>
 4    1  0.4967105E-021  0.5000050E+01  0.7818608E-02  0.2136455E+00
        -11   -1    0    0    0    0  0.00000000000E+00  0.00000000000E+00  0.50000499739E+01  0.50000500000E+01  0.51100000000E-03 0. -1.
         11   -1    0    0    0    0 -0.00000000000E+00 -0.00000000000E+00 -0.50000499739E+01  0.50000500000E+01  0.51100000000E-03 0.  1.
         50    1    1    2    0    0  0.65097944886E-02 -0.20128301116E-01  0.72440713613E-02  0.50000500000E+01  0.50000000000E+01 0.  1.
         50    1    1    2    0    0 -0.65097944886E-02  0.20128301116E-01 -0.72440713613E-02  0.50000500000E+01  0.50000000000E+01 0.  0.
</event>
<event>
 4    1  0.4967105E-021  0.5000050E+01  0.7818608E-02  0.2136455E+00
        -11   -1    0    0    0    0  0.00000000000E+00  0.00000000000E+00  0.50000499739E+01  0.50000500000E+01  0.51100000000E-03 0. -1.
         11   -1    0    0    0    0 -0.00000000000E+00 -0.00000000000E+00 -0.50000499739E+01  0.50000500000E+01  0.51100000000E-03 0.  1.
         50    1    1    2    0    0  0.73447382597E-03 -0.14372042605E-01 -0.17114538836E-01  0.50000500000E+01  0.50000000000E+01 0.  0.
         50    1    1    2    0    0 -0.73447382597E-03  0.14372042605E-01  0.17114538836E-01  0.50000500000E+01  0.50000000000E+01 0.  0.
</event>
<event>
 4    1  0.4967105E-021  0.5000050E+01  0.7818608E-02  0.2136455E+00
        -11   -1    0    0    0    0  0.00000000000E+00  0.00000000000E+00  0.50000499739E+01  0.50000500000E+01  0.51100000000E-03 0. -1.
         11   -1    0    0    0    0 -0.00000000000E+00 -0.00000000000E+00 -0.50000499739E+01  0.50000500000E+01  0.51100000000E-03 0.  1.
         50    1    1    2    0    0 -0.15811470670E-01  0.58443402698E-03 -0.15800580120E-01  0.50000500000E+01  0.50000000000E+01 0.  1.
         50    1    1    2    0    0  0.15811470670E-01 -0.58443402698E-03  0.15800580120E-01  0.50000500000E+01  0.50000000000E+01 0.  0.
</event>
<event>
 4    1  0.4967105E-021  0.5000050E+01  0.7818608E-02  0.2136455E+00
        -11   -1    0    0    0    0  0.00000000000E+00  0.00000000000E+00  0.50000499739E+01  0.50000500000E+01  0.51100000000E-03 0.  1.
         11   -1    0    0    0    0 -0.00000000000E+00 -0.00000000000E+00 -0.50000499739E+01  0.50000500000E+01  0.51100000000E-03 0. -1.
         50    1    1    2    0    0 -0.20022972227E-01  0.47957329474E-02 -0.87226159315E-02  0.50000500000E+01  0.50000000000E+01 0. -1.
         50    1    1    2    0    0  0.20022972227E-01 -0.47957329474E-02  0.87226159315E-02  0.50000500000E+01  0.50000000000E+01 0.  1.
</event>
<event>
 4    1  0.4967105E-021  0.5000050E+01  0.7818608E-02  0.2136455E+00
        -11   -1    0    0    0    0  0.00000000000E+00  0.00000000000E+00  0.50000499739E+01  0.50000500000E+01  0.51100000000E-03 0.  1.
         11   -1    0    0    0    0 -0.00000000000E+00 -0.00000000000E+00 -0.50000499739E+01  0.50000500000E+01  0.51100000000E-03 0. -1.
         50    1    1    2    0    0 -0.50333860938E-02 -0.17596862643E-01  0.12845931245E-01  0.50000500000E+01  0.50000000000E+01 0. -1.
         50    1    1    2    0    0  0.50333860938E-02  0.17596862643E-01 -0.12845931245E-01  0.50000500000E+01  0.50000000000E+01 0.  0.
</event>
<event>
 4    1  0.4967105E-021  0.5000050E+01  0.7818608E-02  0.2136455E+00
        -11   -1    0    0    0    0  0.00000000000E+00  0.00000000000E+00  0.50000499739E+01  0.50000500000E+01  0.51100000000E-03 0.  1.
         11   -1    0    0    0    0 -0.00000000000E+00 -0.00000000000E+00 -0.50000499739E+01  0.50000500000E+01  0.51100000000E-03 0. -1.
         50    1    1    2    0    0 -0.51643568957E-02 -0.20793360920E-01 -0.64006296167E-02  0.50000500000E+01  0.50000000000E+01 0.  1.
         50    1    1    2    0    0  0.51643568957E-02  0.20793360920E-01  0.64006296167E-02  0.50000500000E+01  0.50000000000E+01 0. -1.
</event>
<event>
 4    1  0.4967105E-021  0.5000050E+01  0.7818608E-02  0.2136455E+00
        -11   -1    0    0    0    0  0.00000000000E+00  0.00000000000E+00  0.50000499739E+01  0.50000500000E+01  0.51100000000E-03 0.  1.
         11   -1    0    0    0    0 -0.00000000000E+00 -0.00000000000E+00 -0.50000499739E+01  0.50000500000E+01  0.51100000000E-03 0. -1.
         50    1    1    2    0    0  0.16564033879E-01 -0.12484055364E-01 -0.83536604744E-02  0.50000500000E+01  0.50000000000E+01 0.  0.
         50    1    1    2    0    0 -0.16564033879E-01  0.12484055364E-01  0.83536604744E-02  0.50000500000E+01  0.50000000000E+01 0.  0.
</event>
<event>
 4    1  0.4967105E-021  0.5000050E+01  0.7818608E-02  0.2136455E+00
        -11   -1    0    0    0    0  0.00000000000E+00  0.00000000000E+00  0.50000499739E+01  0.50000500000E+01  0.51100000000E-03 0. -1.
         11   -1    0    0    0    0 -0.00000000000E+00 -0.00000000000E+00 -0.50000499739E+01  0.50000500000E+01  0.51100000000E-03 0.  1.
         50    1    1    2    0    0  0.14793936367E-01 -0.15142216159E-01  0.72010580171E-02  0.50000500000E+01  0.50000000000E+01 0. -1.
         50    1    1    2    0    0 -0.14793936367E-01  0.15142216159E-01 -0.72010580171E-02  0.50000500000E+01  0.50000000000E+01 0.  1.
</event>
<event>
 4    1  0.4967105E-021  0.5000050E+01  0.7818608E-02  0.2136455E+00
        -11   -1    0    0    0    0  0.00000000000E+00  0.00000000000E+00  0.50000499739E+01  0.50000500000E+01  0.51100000000E-03 0.  1.
         11   -1    0    0    0    0 -0.00000000000E+00 -0.00000000000E+00 -0.50000499739E+01  0.50000500000E+01  0.51100000000E-03 0. -1.
         50    1    1    2    0    0  0.64419539668E-02 -0.27116699461E-02 -0.21240305440E-01  0.50000500000E+01  0.50000000000E+01 0.  0.
         50    1    1    2    0    0 -0.64419539668E-02  0.27116699461E-02  0.21240305440E-01  0.50000500000E+01  0.50000000000E+01 0.  1.
</event>
<event>
 4    1  0.4967105E-021  0.5000050E+01  0.7818608E-02  0.2136455E+00
        -11   -1    0    0    0    0  0.00000000000E+00  0.00000000000E+00  0.50000499739E+01  0.50000500000E+01  0.51100000000E-03 0.  1.
         11   -1    0    0    0    0 -0.00000000000E+00 -0.00000000000E+00 -0.50000499739E+01  0.50000500000E+01  0.51100000000E-03 0. -1.
         50    1    1    2    0    0 -0.48925504283E-02  0.20125115806E-01  0.84288293436E-02  0.50000500000E+01  0.50000000000E+01 0.  0.
         50    1    1    2    0    0  0.48925504283E-02 -0.20125115806E-01 -0.84288293436E-02  0.50000500000E+01  0.50000000000E+01 0.  1.
</event>
<event>
 4    1  0.4967105E-021  0.5000050E+01  0.7818608E-02  0.2136455E+00
        -11   -1    0    0    0    0  0.00000000000E+00  0.00000000000E+00  0.50000499739E+01  0.50000500000E+01  0.51100000000E-03 0. -1.
         11   -1    0    0    0    0 -0.00000000000E+00 -0.00000000000E+00 -0.50000499739E+01  0.50000500000E+01  0.51100000000E-03 0.  1.
         50    1    1    2    0    0 -0.93016192533E-02 -0.14927644942E-01 -0.13807526778E-01  0.50000500000E+01  0.50000000000E+01 0.  0.
         50    1    1    2    0    0  0.93016192533E-02  0.14927644942E-01  0.13807526778E-01  0.50000500000E+01  0.50000000000E+01 0. -1.
</event>
<event>
 4    1  0.4967105E-021  0.5000050E+01  0.7818608E-02  0.2136455E+00
        -11   -1    0    0    0    0  0.00000000000E+00  0.00000000000E+00  0.50000499739E+01  0.50000500000E+01  0.51100000000E-03 0. -1.
         11   -1    0    0    0    0 -0.00000000000E+00 -0.00000000000E+00 -0.50000499739E+01  0.50000500000E+01  0.51100000000E-03 0.  1.
         50    1    1    2    0    0  0.16269101484E-01  0.18441929719E-02 -0.15228847270E-01  0.50000500000E+01  0.50000000000E+01 0. -1.
         50    1    1    2    0    0 -0.16269101484E-01 -0.18441929719E-02  0.15228847270E-01  0.50000500000E+01  0.50000000000E+01 0.  0.
</event>
<event>
 4    1  0.4967105E-021  0.5000050E+01  0.7818608E-02  0.2136455E+00
        -11   -1    0    0    0    0  0.00000000000E+00  0.00000000000E+00  0.50000499739E+01  0.50000500000E+01  0.51100000000E-03 0. -1.
         11   -1    0    0    0    0 -0.00000000000E+00 -0.00000000000E+00 -0.50000499739E+01  0.50000500000E+01  0.51100000000E-03 0.  1.
         50    1    1    2    0    0 -0.74381885536E-02  0.13050716273E-01 -0.16563654663E-01  0.50000500000E+01  0.50000000000E+01 0.  1.
         50    1    1    2    0    0  0.74381885536E-02 -0.13050716273E-01  0.16563654663E-01  0.50000500000E+01  0.50000000000E+01 0. -1.
</event>
<event>
 4    1  0.4967105E-021  0.5000050E+01  0.7818608E-02  0.2136455E+00
        -11   -1    0    0    0    0  0.00000000000E+00  0.00000000000E+00  0.50000499739E+01  0.50000500000E+01  0.51100000000E-03 0. -1.
         11   -1    0    0    0    0 -0.00000000000E+00 -0.00000000000E+00 -0.50000499739E+01  0.50000500000E+01  0.51100000000E-03 0.  1.
         50    1    1    2    0    0  0.10635217395E-01  0.19668992796E-01 -0.15929011240E-03  0.50000500000E+01  0.50000000000E+01 0.  0.
         50    1    1    2    0    0 -0.10635217395E-01 -0.19668992796E-01  0.15929011240E-03  0.50000500000E+01  0.50000000000E+01 0.  1.
</event>
<event>
 4    1  0.4967105E-021  0.5000050E+01  0.7818608E-02  0.2136455E+00
        -11   -1    0    0    0    0  0.00000000000E+00  0.00000000000E+00  0.50000499739E+01  0.50000500000E+01  0.51100000000E-03 0.  1.
         11   -1    0    0    0    0 -0.00000000000E+00 -0.00000000000E+00 -0.50000499739E+01  0.50000500000E+01  0.51100000000E-03 0. -1.
         50    1    1    2    0    0  0.12017871608E-01  0.10825329563E-01  0.15439737753E-01  0.50000500000E+01  0.50000000000E+01 0. -1.
         50    1    1    2    0    0 -0.12017871608E-01 -0.10825329563E-01 -0.15439737753E-01  0.50000500000E+01  0.50000000000E+01 0.  0.
</event>
<event>
 4    1  0.4967105E-021  0.5000050E+01  0.7818608E-02  0.2136455E+00
        -11   -1    0    0    0    0  0.00000000000E+00  0.00000000000E+00  0.50000499739E+01  0.50000500000E+01  0.51100000000E-03 0.  1.
         11   -1    0    0    0    0 -0.00000000000E+00 -0.00000000000E+00 -0.50000499739E+01  0.50000500000E+01  0.51100000000E-03 0. -1.
         50    1    1    2    0    0 -0.17550361884E-02  0.21309656769E-01 -0.65437662227E-02  0.50000500000E+01  0.50000000000E+01 0.  1.
         50    1    1    2    0    0  0.17550361884E-02 -0.21309656769E-01  0.65437662227E-02  0.50000500000E+01  0.50000000000E+01 0. -1.
</event>
<event>
 4    1  0.4967105E-021  0.5000050E+01  0.7818608E-02  0.2136455E+00
        -11   -1    0    0    0    0  0.00000000000E+00  0.00000000000E+00  0.50000499739E+01  0.50000500000E+01  0.51100000000E-03 0. -1.
         11   -1    0    0    0    0 -0.00000000000E+00 -0.00000000000E+00 -0.50000499739E+01  0.50000500000E+01  0.51100000000E-03 0.  1.
         50    1    1    2    0    0  0.22521672744E-02 -0.20364985834E-01 -0.89553109696E-02  0.50000500000E+01  0.50000000000E+01 0.  1.
         50    1    1    2    0    0 -0.22521672744E-02  0.20364985834E-01  0.89553109696E-02  0.50000500000E+01  0.50000000000E+01 0. -1.
</event>
<event>
 4    1  0.4967105E-021  0.5000050E+01  0.7818608E-02  0.2136455E+00
        -11   -1    0    0    0    0  0.00000000000E+00  0.00000000000E+00  0.50000499739E+01  0.50000500000E+01  0.51100000000E-03 0. -1.
         11   -1    0    0    0    0 -0.00000000000E+00 -0.00000000000E+00 -0.50000499739E+01  0.50000500000E+01  0.51100000000E-03 0.  1.
         50    1    1    2    0    0 -0.16432371363E-01  0.70637941671E-02  0.13419481486E-01  0.50000500000E+01  0.50000000000E+01 0.  0.
         50    1    1    2    0    0  0.16432371363E-01 -0.70637941671E-02 -0.13419481486E-01  0.50000500000E+01  0.50000000000E+01 0. -1.
</event>
<event>
 4    1  0.4967105E-021  0.5000050E+01  0.7818608E-02  0.2136455E+00
        -11   -1    0    0    0    0  0.00000000000E+00  0.00000000000E+00  0.50000499739E+01  0.50000500000E+01  0.51100000000E-03 0.  1.
         11   -1    0    0    0    0 -0.00000000000E+00 -0.00000000000E+00 -0.50000499739E+01  0.50000500000E+01  0.51100000000E-03 0. -1.
         50    1    1    2    0    0 -0.21708489190E-01 -0.44092037067E-02  0.30500688113E-02  0.50000500000E+01  0.50000000000E+01 0.  0.
         50    1    1    2    0    0  0.21708489190E-01  0.44092037067E-02 -0.30500688113E-02  0.50000500000E+01  0.50000000000E+01 0.  1.
</event>
<event>
 4    1  0.4967105E-021  0.5000050E+01  0.7818608E-02  0.2136455E+00
        -11   -1    0    0    0    0  0.00000000000E+00  0.00000000000E+00  0.50000499739E+01  0.50000500000E+01  0.51100000000E-03 0.  1.
         11   -1    0    0    0    0 -0.00000000000E+00 -0.00000000000E+00 -0.50000499739E+01  0.50000500000E+01  0.51100000000E-03 0. -1.
         50    1    1    2    0    0 -0.20413200230E-01 -0.84211137668E-02 -0.35197442075E-02  0.50000500000E+01  0.50000000000E+01 0.  1.
         50    1    1    2    0    0  0.20413200230E-01  0.84211137668E-02  0.35197442075E-02  0.50000500000E+01  0.50000000000E+01 0. -1.
</event>
<event>
 4    1  0.4967105E-021  0.5000050E+01  0.7818608E-02  0.2136455E+00
        -11   -1    0    0    0    0  0.00000000000E+00  0.00000000000E+00  0.50000499739E+01  0.50000500000E+01  0.51100000000E-03 0. -1.
         11   -1    0    0    0    0 -0.00000000000E+00 -0.00000000000E+00 -0.50000499739E+01  0.50000500000E+01  0.51100000000E-03 0.  1.
         50    1    1    2    0    0  0.62530684478E-02  0.21461068062E-01  0.56937917173E-03  0.50000500000E+01  0.50000000000E+01 0.  1.
         50    1    1    2    0    0 -0.62530684478E-02 -0.21461068062E-01 -0.56937917173E-03  0.50000500000E+01  0.50000000000E+01 0.  0.
</event>
<event>
 4    1  0.4967105E-021  0.5000050E+01  0.7818608E-02  0.2136455E+00
        -11   -1    0    0    0    0  0.00000000000E+00  0.00000000000E+00  0.50000499739E+01  0.50000500000E+01  0.51100000000E-03 0. -1.
         11   -1    0    0    0    0 -0.00000000000E+00 -0.00000000000E+00 -0.50000499739E+01  0.50000500000E+01  0.51100000000E-03 0.  1.
         50    1    1    2    0    0 -0.14484488869E-01  0.11547008042E-01  0.12524723050E-01  0.50000500000E+01  0.50000000000E+01 0.  0.
         50    1    1    2    0    0  0.14484488869E-01 -0.11547008042E-01 -0.12524723050E-01  0.50000500000E+01  0.50000000000E+01 0.  0.
</event>
<event>
 4    1  0.4967105E-021  0.5000050E+01  0.7818608E-02  0.2136455E+00
        -11   -1    0    0    0    0  0.00000000000E+00  0.00000000000E+00  0.50000499739E+01  0.50000500000E+01  0.51100000000E-03 0.  1.
         11   -1    0    0    0    0 -0.00000000000E+00 -0.00000000000E+00 -0.50000499739E+01  0.50000500000E+01  0.51100000000E-03 0. -1.
         50    1    1    2    0    0  0.88552861384E-03 -0.22335195715E-01 -0.59780553560E-03  0.50000500000E+01  0.50000000000E+01 0. -1.
         50    1    1    2    0    0 -0.88552861384E-03  0.22335195715E-01  0.59780553560E-03  0.50000500000E+01  0.50000000000E+01 0.  1.
</event>
<event>
 4    1  0.4967105E-021  0.5000050E+01  0.7818608E-02  0.2136455E+00
        -11   -1    0    0    0    0  0.00000000000E+00  0.00000000000E+00  0.50000499739E+01  0.50000500000E+01  0.51100000000E-03 0. -1.
         11   -1    0    0    0    0 -0.00000000000E+00 -0.00000000000E+00 -0.50000499739E+01  0.50000500000E+01  0.51100000000E-03 0.  1.
         50    1    1    2    0    0 -0.16690943893E-01  0.64224570800E-02  0.13422627798E-01  0.50000500000E+01  0.50000000000E+01 0.  0.
         50    1    1    2    0    0  0.16690943893E-01 -0.64224570800E-02 -0.13422627798E-01  0.50000500000E+01  0.50000000000E+01 0.  0.
</event>
<event>
 4    1  0.4967105E-021  0.5000050E+01  0.7818608E-02  0.2136455E+00
        -11   -1    0    0    0    0  0.00000000000E+00  0.00000000000E+00  0.50000499739E+01  0.50000500000E+01  0.51100000000E-03 0. -1.
         11   -1    0    0    0    0 -0.00000000000E+00 -0.00000000000E+00 -0.50000499739E+01  0.50000500000E+01  0.51100000000E-03 0.  1.
         50    1    1    2    0    0 -0.15543242520E-01 -0.14966923073E-01  0.58652643323E-02  0.50000500000E+01  0.50000000000E+01 0.  1.
         50    1    1    2    0    0  0.15543242520E-01  0.14966923073E-01 -0.58652643323E-02  0.50000500000E+01  0.50000000000E+01 0.  0.
</event>
<event>
 4    1  0.4967105E-021  0.5000050E+01  0.7818608E-02  0.2136455E+00
        -11   -1    0    0    0    0  0.00000000000E+00  0.00000000000E+00  0.50000499739E+01  0.50000500000E+01  0.51100000000E-03 0. -1.
         11   -1    0    0    0    0 -0.00000000000E+00 -0.00000000000E+00 -0.50000499739E+01  0.50000500000E+01  0.51100000000E-03 0.  1.
         50    1    1    2    0    0 -0.22253961630E-01 -0.21822456944E-02 -0.38671628108E-04  0.50000500000E+01  0.50000000000E+01 0.  1.
         50    1    1    2    0    0  0.22253961630E-01  0.21822456944E-02  0.38671628108E-04  0.50000500000E+01  0.50000000000E+01 0. -1.
</event>
<event>
 4    1  0.4967105E-021  0.5000050E+01  0.7818608E-02  0.2136455E+00
        -11   -1    0    0    0    0  0.00000000000E+00  0.00000000000E+00  0.50000499739E+01  0.50000500000E+01  0.51100000000E-03 0. -1.
         11   -1    0    0    0    0 -0.00000000000E+00 -0.00000000000E+00 -0.50000499739E+01  0.50000500000E+01  0.51100000000E-03 0.  1.
         50    1    1    2    0    0 -0.79164525800E-02  0.14789963031E-01 -0.14784764864E-01  0.50000500000E+01  0.50000000000E+01 0.  0.
         50    1    1    2    0    0  0.79164525800E-02 -0.14789963031E-01  0.14784764864E-01  0.50000500000E+01  0.50000000000E+01 0.  0.
</event>
<event>
 4    1  0.4967105E-021  0.5000050E+01  0.7818608E-02  0.2136455E+00
        -11   -1    0    0    0    0  0.00000000000E+00  0.00000000000E+00  0.50000499739E+01  0.50000500000E+01  0.51100000000E-03 0.  1.
         11   -1    0    0    0    0 -0.00000000000E+00 -0.00000000000E+00 -0.50000499739E+01  0.50000500000E+01  0.51100000000E-03 0. -1.
         50    1    1    2    0    0 -0.40484739544E-02  0.93875257162E-02 -0.19886847904E-01  0.50000500000E+01  0.50000000000E+01 0.  0.
         50    1    1    2    0    0  0.40484739544E-02 -0.93875257162E-02  0.19886847904E-01  0.50000500000E+01  0.50000000000E+01 0.  1.
</event>
<event>
 4    1  0.4967105E-021  0.5000050E+01  0.7818608E-02  0.2136455E+00
        -11   -1    0    0    0    0  0.00000000000E+00  0.00000000000E+00  0.50000499739E+01  0.50000500000E+01  0.51100000000E-03 0. -1.
         11   -1    0    0    0    0 -0.00000000000E+00 -0.00000000000E+00 -0.50000499739E+01  0.50000500000E+01  0.51100000000E-03 0.  1.
         50    1    1    2    0    0 -0.64276875534E-02  0.40286209858E-02  0.21034674841E-01  0.50000500000E+01  0.50000000000E+01 0. -1.
         50    1    1    2    0    0  0.64276875534E-02 -0.40286209858E-02 -0.21034674841E-01  0.50000500000E+01  0.50000000000E+01 0.  0.
</event>
<event>
 4    1  0.4967105E-021  0.5000050E+01  0.7818608E-02  0.2136455E+00
        -11   -1    0    0    0    0  0.00000000000E+00  0.00000000000E+00  0.50000499739E+01  0.50000500000E+01  0.51100000000E-03 0. -1.
         11   -1    0    0    0    0 -0.00000000000E+00 -0.00000000000E+00 -0.50000499739E+01  0.50000500000E+01  0.51100000000E-03 0.  1.
         50    1    1    2    0    0 -0.20496140703E-01 -0.48133549786E-02 -0.75327505025E-02  0.50000500000E+01  0.50000000000E+01 0.  0.
         50    1    1    2    0    0  0.20496140703E-01  0.48133549786E-02  0.75327505025E-02  0.50000500000E+01  0.50000000000E+01 0.  0.
</event>
<event>
 4    1  0.4967105E-021  0.5000050E+01  0.7818608E-02  0.2136455E+00
        -11   -1    0    0    0    0  0.00000000000E+00  0.00000000000E+00  0.50000499739E+01  0.50000500000E+01  0.51100000000E-03 0. -1.
         11   -1    0    0    0    0 -0.00000000000E+00 -0.00000000000E+00 -0.50000499739E+01  0.50000500000E+01  0.51100000000E-03 0.  1.
         50    1    1    2    0    0 -0.62143653159E-02 -0.14838347637E-01 -0.15530859703E-01  0.50000500000E+01  0.50000000000E+01 0. -1.
         50    1    1    2    0    0  0.62143653159E-02  0.14838347637E-01  0.15530859703E-01  0.50000500000E+01  0.50000000000E+01 0. -1.
</event>
<event>
 4    1  0.4967105E-021  0.5000050E+01  0.7818608E-02  0.2136455E+00
        -11   -1    0    0    0    0  0.00000000000E+00  0.00000000000E+00  0.50000499739E+01  0.50000500000E+01  0.51100000000E-03 0. -1.
         11   -1    0    0    0    0 -0.00000000000E+00 -0.00000000000E+00 -0.50000499739E+01  0.50000500000E+01  0.51100000000E-03 0.  1.
         50    1    1    2    0    0 -0.12899015858E-01 -0.16931018416E-01  0.68526276175E-02  0.50000500000E+01  0.50000000000E+01 0.  1.
         50    1    1    2    0    0  0.12899015858E-01  0.16931018416E-01 -0.68526276175E-02  0.50000500000E+01  0.50000000000E+01 0. -1.
</event>
<event>
 4    1  0.4967105E-021  0.5000050E+01  0.7818608E-02  0.2136455E+00
        -11   -1    0    0    0    0  0.00000000000E+00  0.00000000000E+00  0.50000499739E+01  0.50000500000E+01  0.51100000000E-03 0. -1.
         11   -1    0    0    0    0 -0.00000000000E+00 -0.00000000000E+00 -0.50000499739E+01  0.50000500000E+01  0.51100000000E-03 0.  1.
         50    1    1    2    0    0  0.29342902090E-03  0.12017885095E-01 -0.18854358575E-01  0.50000500000E+01  0.50000000000E+01 0.  1.
         50    1    1    2    0    0 -0.29342902090E-03 -0.12017885095E-01  0.18854358575E-01  0.50000500000E+01  0.50000000000E+01 0.  0.
</event>
<event>
 4    1  0.4967105E-021  0.5000050E+01  0.7818608E-02  0.2136455E+00
        -11   -1    0    0    0    0  0.00000000000E+00  0.00000000000E+00  0.50000499739E+01  0.50000500000E+01  0.51100000000E-03 0.  1.
         11   -1    0    0    0    0 -0.00000000000E+00 -0.00000000000E+00 -0.50000499739E+01  0.50000500000E+01  0.51100000000E-03 0. -1.
         50    1    1    2    0    0  0.67617055372E-02  0.21252383440E-01  0.16180347136E-02  0.50000500000E+01  0.50000000000E+01 0.  0.
         50    1    1    2    0    0 -0.67617055372E-02 -0.21252383440E-01 -0.16180347136E-02  0.50000500000E+01  0.50000000000E+01 0.  1.
</event>
<event>
 4    1  0.4967105E-021  0.5000050E+01  0.7818608E-02  0.2136455E+00
        -11   -1    0    0    0    0  0.00000000000E+00  0.00000000000E+00  0.50000499739E+01  0.50000500000E+01  0.51100000000E-03 0.  1.
         11   -1    0    0    0    0 -0.00000000000E+00 -0.00000000000E+00 -0.50000499739E+01  0.50000500000E+01  0.51100000000E-03 0. -1.
         50    1    1    2    0    0  0.53562787620E-02  0.94066394187E-02 -0.19565988671E-01  0.50000500000E+01  0.50000000000E+01 0. -1.
         50    1    1    2    0    0 -0.53562787620E-02 -0.94066394187E-02  0.19565988671E-01  0.50000500000E+01  0.50000000000E+01 0.  1.
</event>
<event>
 4    1  0.4967105E-021  0.5000050E+01  0.7818608E-02  0.2136455E+00
        -11   -1    0    0    0    0  0.00000000000E+00  0.00000000000E+00  0.50000499739E+01  0.50000500000E+01  0.51100000000E-03 0. -1.
         11   -1    0    0    0    0 -0.00000000000E+00 -0.00000000000E+00 -0.50000499739E+01  0.50000500000E+01  0.51100000000E-03 0.  1.
         50    1    1    2    0    0  0.10772465677E-01  0.14985845769E-01 -0.12624615234E-01  0.50000500000E+01  0.50000000000E+01 0.  1.
         50    1    1    2    0    0 -0.10772465677E-01 -0.14985845769E-01  0.12624615234E-01  0.50000500000E+01  0.50000000000E+01 0. -1.
</event>
<event>
 4    1  0.4967105E-021  0.5000050E+01  0.7818608E-02  0.2136455E+00
        -11   -1    0    0    0    0  0.00000000000E+00  0.00000000000E+00  0.50000499739E+01  0.50000500000E+01  0.51100000000E-03 0.  1.
         11   -1    0    0    0    0 -0.00000000000E+00 -0.00000000000E+00 -0.50000499739E+01  0.50000500000E+01  0.51100000000E-03 0. -1.
         50    1    1    2    0    0 -0.82648009218E-02  0.18236778277E-01 -0.99556759591E-02  0.50000500000E+01  0.50000000000E+01 0. -1.
         50    1    1    2    0    0  0.82648009218E-02 -0.18236778277E-01  0.99556759591E-02  0.50000500000E+01  0.50000000000E+01 0.  1.
</event>
<event>
 4    1  0.4967105E-021  0.5000050E+01  0.7818608E-02  0.2136455E+00
        -11   -1    0    0    0    0  0.00000000000E+00  0.00000000000E+00  0.50000499739E+01  0.50000500000E+01  0.51100000000E-03 0. -1.
         11   -1    0    0    0    0 -0.00000000000E+00 -0.00000000000E+00 -0.50000499739E+01  0.50000500000E+01  0.51100000000E-03 0.  1.
         50    1    1    2    0    0 -0.45099672247E-02 -0.20166492279E-01 -0.85425572747E-02  0.50000500000E+01  0.50000000000E+01 0.  0.
         50    1    1    2    0    0  0.45099672247E-02  0.20166492279E-01  0.85425572747E-02  0.50000500000E+01  0.50000000000E+01 0. -1.
</event>
<event>
 4    1  0.4967105E-021  0.5000050E+01  0.7818608E-02  0.2136455E+00
        -11   -1    0    0    0    0  0.00000000000E+00  0.00000000000E+00  0.50000499739E+01  0.50000500000E+01  0.51100000000E-03 0.  1.
         11   -1    0    0    0    0 -0.00000000000E+00 -0.00000000000E+00 -0.50000499739E+01  0.50000500000E+01  0.51100000000E-03 0. -1.
         50    1    1    2    0    0  0.20618461944E-01 -0.39392647810E-02  0.77047855291E-02  0.50000500000E+01  0.50000000000E+01 0.  0.
         50    1    1    2    0    0 -0.20618461944E-01  0.39392647810E-02 -0.77047855291E-02  0.50000500000E+01  0.50000000000E+01 0.  1.
</event>
<event>
 4    1  0.4967105E-021  0.5000050E+01  0.7818608E-02  0.2136455E+00
        -11   -1    0    0    0    0  0.00000000000E+00  0.00000000000E+00  0.50000499739E+01  0.50000500000E+01  0.51100000000E-03 0. -1.
         11   -1    0    0    0    0 -0.00000000000E+00 -0.00000000000E+00 -0.50000499739E+01  0.50000500000E+01  0.51100000000E-03 0.  1.
         50    1    1    2    0    0 -0.19250206660E-01  0.41548585161E-02  0.10590995905E-01  0.50000500000E+01  0.50000000000E+01 0. -1.
         50    1    1    2    0    0  0.19250206660E-01 -0.41548585161E-02 -0.10590995905E-01  0.50000500000E+01  0.50000000000E+01 0.  1.
</event>
<event>
 4    1  0.4967105E-021  0.5000050E+01  0.7818608E-02  0.2136455E+00
        -11   -1    0    0    0    0  0.00000000000E+00  0.00000000000E+00  0.50000499739E+01  0.50000500000E+01  0.51100000000E-03 0.  1.
         11   -1    0    0    0    0 -0.00000000000E+00 -0.00000000000E+00 -0.50000499739E+01  0.50000500000E+01  0.51100000000E-03 0. -1.
         50    1    1    2    0    0 -0.13430228817E-01  0.16038883938E-01  0.78984590878E-02  0.50000500000E+01  0.50000000000E+01 0. -1.
         50    1    1    2    0    0  0.13430228817E-01 -0.16038883938E-01 -0.78984590878E-02  0.50000500000E+01  0.50000000000E+01 0.  1.
</event>
<event>
 4    1  0.4967105E-021  0.5000050E+01  0.7818608E-02  0.2136455E+00
        -11   -1    0    0    0    0  0.00000000000E+00  0.00000000000E+00  0.50000499739E+01  0.50000500000E+01  0.51100000000E-03 0.  1.
         11   -1    0    0    0    0 -0.00000000000E+00 -0.00000000000E+00 -0.50000499739E+01  0.50000500000E+01  0.51100000000E-03 0. -1.
         50    1    1    2    0    0 -0.82531580263E-02 -0.20718615951E-01  0.16207515726E-02  0.50000500000E+01  0.50000000000E+01 0.  0.
         50    1    1    2    0    0  0.82531580263E-02  0.20718615951E-01 -0.16207515726E-02  0.50000500000E+01  0.50000000000E+01 0.  1.
</event>
<event>
 4    1  0.4967105E-021  0.5000050E+01  0.7818608E-02  0.2136455E+00
        -11   -1    0    0    0    0  0.00000000000E+00  0.00000000000E+00  0.50000499739E+01  0.50000500000E+01  0.51100000000E-03 0.  1.
         11   -1    0    0    0    0 -0.00000000000E+00 -0.00000000000E+00 -0.50000499739E+01  0.50000500000E+01  0.51100000000E-03 0. -1.
         50    1    1    2    0    0  0.71134960284E-02  0.15868325283E-01  0.14056917406E-01  0.50000500000E+01  0.50000000000E+01 0.  1.
         50    1    1    2    0    0 -0.71134960284E-02 -0.15868325283E-01 -0.14056917406E-01  0.50000500000E+01  0.50000000000E+01 0. -1.
</event>
<event>
 4    1  0.4967105E-021  0.5000050E+01  0.7818608E-02  0.2136455E+00
        -11   -1    0    0    0    0  0.00000000000E+00  0.00000000000E+00  0.50000499739E+01  0.50000500000E+01  0.51100000000E-03 0. -1.
         11   -1    0    0    0    0 -0.00000000000E+00 -0.00000000000E+00 -0.50000499739E+01  0.50000500000E+01  0.51100000000E-03 0.  1.
         50    1    1    2    0    0  0.72558323678E-02  0.62337365384E-02 -0.20211282132E-01  0.50000500000E+01  0.50000000000E+01 0.  1.
         50    1    1    2    0    0 -0.72558323678E-02 -0.62337365384E-02  0.20211282132E-01  0.50000500000E+01  0.50000000000E+01 0.  1.
</event>
<event>
 4    1  0.4967105E-021  0.5000050E+01  0.7818608E-02  0.2136455E+00
        -11   -1    0    0    0    0  0.00000000000E+00  0.00000000000E+00  0.50000499739E+01  0.50000500000E+01  0.51100000000E-03 0.  1.
         11   -1    0    0    0    0 -0.00000000000E+00 -0.00000000000E+00 -0.50000499739E+01  0.50000500000E+01  0.51100000000E-03 0. -1.
         50    1    1    2    0    0 -0.31993142074E-02 -0.19661735418E-01  0.10157905737E-01  0.50000500000E+01  0.50000000000E+01 0.  1.
         50    1    1    2    0    0  0.31993142074E-02  0.19661735418E-01 -0.10157905737E-01  0.50000500000E+01  0.50000000000E+01 0. -1.
</event>
<event>
 4    1  0.4967105E-021  0.5000050E+01  0.7818608E-02  0.2136455E+00
        -11   -1    0    0    0    0  0.00000000000E+00  0.00000000000E+00  0.50000499739E+01  0.50000500000E+01  0.51100000000E-03 0. -1.
         11   -1    0    0    0    0 -0.00000000000E+00 -0.00000000000E+00 -0.50000499739E+01  0.50000500000E+01  0.51100000000E-03 0.  1.
         50    1    1    2    0    0 -0.18484105350E-01 -0.21647470283E-02  0.12395733932E-01  0.50000500000E+01  0.50000000000E+01 0. -1.
         50    1    1    2    0    0  0.18484105350E-01  0.21647470283E-02 -0.12395733932E-01  0.50000500000E+01  0.50000000000E+01 0.  1.
</event>
<event>
 4    1  0.4967105E-021  0.5000050E+01  0.7818608E-02  0.2136455E+00
        -11   -1    0    0    0    0  0.00000000000E+00  0.00000000000E+00  0.50000499739E+01  0.50000500000E+01  0.51100000000E-03 0.  1.
         11   -1    0    0    0    0 -0.00000000000E+00 -0.00000000000E+00 -0.50000499739E+01  0.50000500000E+01  0.51100000000E-03 0. -1.
         50    1    1    2    0    0 -0.45137187749E-02 -0.15256225931E-01  0.15712301333E-01  0.50000500000E+01  0.50000000000E+01 0.  0.
         50    1    1    2    0    0  0.45137187749E-02  0.15256225931E-01 -0.15712301333E-01  0.50000500000E+01  0.50000000000E+01 0.  0.
</event>
<event>
 4    1  0.4967105E-021  0.5000050E+01  0.7818608E-02  0.2136455E+00
        -11   -1    0    0    0    0  0.00000000000E+00  0.00000000000E+00  0.50000499739E+01  0.50000500000E+01  0.51100000000E-03 0.  1.
         11   -1    0    0    0    0 -0.00000000000E+00 -0.00000000000E+00 -0.50000499739E+01  0.50000500000E+01  0.51100000000E-03 0. -1.
         50    1    1    2    0    0  0.65078329114E-02  0.19884793386E-01  0.78895882533E-02  0.50000500000E+01  0.50000000000E+01 0.  1.
         50    1    1    2    0    0 -0.65078329114E-02 -0.19884793386E-01 -0.78895882533E-02  0.50000500000E+01  0.50000000000E+01 0. -1.
</event>
<event>
 4    1  0.4967105E-021  0.5000050E+01  0.7818608E-02  0.2136455E+00
        -11   -1    0    0    0    0  0.00000000000E+00  0.00000000000E+00  0.50000499739E+01  0.50000500000E+01  0.51100000000E-03 0.  1.
         11   -1    0    0    0    0 -0.00000000000E+00 -0.00000000000E+00 -0.50000499739E+01  0.50000500000E+01  0.51100000000E-03 0. -1.
         50    1    1    2    0    0 -0.50903427340E-03 -0.63875183149E-02  0.21422954835E-01  0.50000500000E+01  0.50000000000E+01 0.  0.
         50    1    1    2    0    0  0.50903427340E-03  0.63875183149E-02 -0.21422954835E-01  0.50000500000E+01  0.50000000000E+01 0. -1.
</event>
<event>
 4    1  0.4967105E-021  0.5000050E+01  0.7818608E-02  0.2136455E+00
        -11   -1    0    0    0    0  0.00000000000E+00  0.00000000000E+00  0.50000499739E+01  0.50000500000E+01  0.51100000000E-03 0.  1.
         11   -1    0    0    0    0 -0.00000000000E+00 -0.00000000000E+00 -0.50000499739E+01  0.50000500000E+01  0.51100000000E-03 0. -1.
         50    1    1    2    0    0 -0.66590427989E-02 -0.19346688720E-01 -0.90202707590E-02  0.50000500000E+01  0.50000000000E+01 0. -1.
         50    1    1    2    0    0  0.66590427989E-02  0.19346688720E-01  0.90202707590E-02  0.50000500000E+01  0.50000000000E+01 0.  1.
</event>
<event>
 4    1  0.4967105E-021  0.5000050E+01  0.7818608E-02  0.2136455E+00
        -11   -1    0    0    0    0  0.00000000000E+00  0.00000000000E+00  0.50000499739E+01  0.50000500000E+01  0.51100000000E-03 0.  1.
         11   -1    0    0    0    0 -0.00000000000E+00 -0.00000000000E+00 -0.50000499739E+01  0.50000500000E+01  0.51100000000E-03 0. -1.
         50    1    1    2    0    0 -0.21372834144E-01 -0.31683717789E-02 -0.57589826275E-02  0.50000500000E+01  0.50000000000E+01 0.  0.
         50    1    1    2    0    0  0.21372834144E-01  0.31683717789E-02  0.57589826275E-02  0.50000500000E+01  0.50000000000E+01 0. -1.
</event>
<event>
 4    1  0.4967105E-021  0.5000050E+01  0.7818608E-02  0.2136455E+00
        -11   -1    0    0    0    0  0.00000000000E+00  0.00000000000E+00  0.50000499739E+01  0.50000500000E+01  0.51100000000E-03 0.  1.
         11   -1    0    0    0    0 -0.00000000000E+00 -0.00000000000E+00 -0.50000499739E+01  0.50000500000E+01  0.51100000000E-03 0. -1.
         50    1    1    2    0    0 -0.15064378824E-02  0.16139301065E-01 -0.15403120009E-01  0.50000500000E+01  0.50000000000E+01 0.  1.
         50    1    1    2    0    0  0.15064378824E-02 -0.16139301065E-01  0.15403120009E-01  0.50000500000E+01  0.50000000000E+01 0.  1.
</event>
<event>
 4    1  0.4967105E-021  0.5000050E+01  0.7818608E-02  0.2136455E+00
        -11   -1    0    0    0    0  0.00000000000E+00  0.00000000000E+00  0.50000499739E+01  0.50000500000E+01  0.51100000000E-03 0. -1.
         11   -1    0    0    0    0 -0.00000000000E+00 -0.00000000000E+00 -0.50000499739E+01  0.50000500000E+01  0.51100000000E-03 0.  1.
         50    1    1    2    0    0 -0.21166675022E-01 -0.68978148707E-02  0.20963106895E-02  0.50000500000E+01  0.50000000000E+01 0.  1.
         50    1    1    2    0    0  0.21166675022E-01  0.68978148707E-02 -0.20963106895E-02  0.50000500000E+01  0.50000000000E+01 0.  0.
</event>
<event>
 4    1  0.4967105E-021  0.5000050E+01  0.7818608E-02  0.2136455E+00
        -11   -1    0    0    0    0  0.00000000000E+00  0.00000000000E+00  0.50000499739E+01  0.50000500000E+01  0.51100000000E-03 0. -1.
         11   -1    0    0    0    0 -0.00000000000E+00 -0.00000000000E+00 -0.50000499739E+01  0.50000500000E+01  0.51100000000E-03 0.  1.
         50    1    1    2    0    0 -0.18485609106E-01  0.11698960189E-01 -0.46280758946E-02  0.50000500000E+01  0.50000000000E+01 0.  1.
         50    1    1    2    0    0  0.18485609106E-01 -0.11698960189E-01  0.46280758946E-02  0.50000500000E+01  0.50000000000E+01 0. -1.
</event>
<event>
 4    1  0.4967105E-021  0.5000050E+01  0.7818608E-02  0.2136455E+00
        -11   -1    0    0    0    0  0.00000000000E+00  0.00000000000E+00  0.50000499739E+01  0.50000500000E+01  0.51100000000E-03 0.  1.
         11   -1    0    0    0    0 -0.00000000000E+00 -0.00000000000E+00 -0.50000499739E+01  0.50000500000E+01  0.51100000000E-03 0. -1.
         50    1    1    2    0    0  0.55149601741E-02  0.11574590881E-01  0.18319840616E-01  0.50000500000E+01  0.50000000000E+01 0.  1.
         50    1    1    2    0    0 -0.55149601741E-02 -0.11574590881E-01 -0.18319840616E-01  0.50000500000E+01  0.50000000000E+01 0. -1.
</event>
<event>
 4    1  0.4967105E-021  0.5000050E+01  0.7818608E-02  0.2136455E+00
        -11   -1    0    0    0    0  0.00000000000E+00  0.00000000000E+00  0.50000499739E+01  0.50000500000E+01  0.51100000000E-03 0.  1.
         11   -1    0    0    0    0 -0.00000000000E+00 -0.00000000000E+00 -0.50000499739E+01  0.50000500000E+01  0.51100000000E-03 0. -1.
         50    1    1    2    0    0  0.20969820237E-01 -0.53261973094E-02 -0.56480759084E-02  0.50000500000E+01  0.50000000000E+01 0.  0.
         50    1    1    2    0    0 -0.20969820237E-01  0.53261973094E-02  0.56480759084E-02  0.50000500000E+01  0.50000000000E+01 0. -1.
</event>
<event>
 4    1  0.4967105E-021  0.5000050E+01  0.7818608E-02  0.2136455E+00
        -11   -1    0    0    0    0  0.00000000000E+00  0.00000000000E+00  0.50000499739E+01  0.50000500000E+01  0.51100000000E-03 0. -1.
         11   -1    0    0    0    0 -0.00000000000E+00 -0.00000000000E+00 -0.50000499739E+01  0.50000500000E+01  0.51100000000E-03 0.  1.
         50    1    1    2    0    0  0.16506643624E-01  0.56459008001E-02  0.13987745366E-01  0.50000500000E+01  0.50000000000E+01 0. -1.
         50    1    1    2    0    0 -0.16506643624E-01 -0.56459008001E-02 -0.13987745366E-01  0.50000500000E+01  0.50000000000E+01 0.  1.
</event>
<event>
 4    1  0.4967105E-021  0.5000050E+01  0.7818608E-02  0.2136455E+00
        -11   -1    0    0    0    0  0.00000000000E+00  0.00000000000E+00  0.50000499739E+01  0.50000500000E+01  0.51100000000E-03 0. -1.
         11   -1    0    0    0    0 -0.00000000000E+00 -0.00000000000E+00 -0.50000499739E+01  0.50000500000E+01  0.51100000000E-03 0.  1.
         50    1    1    2    0    0 -0.18862713742E-01  0.95707490108E-02  0.72526749315E-02  0.50000500000E+01  0.50000000000E+01 0.  1.
         50    1    1    2    0    0  0.18862713742E-01 -0.95707490108E-02 -0.72526749315E-02  0.50000500000E+01  0.50000000000E+01 0.  0.
</event>
<event>
 4    1  0.4967105E-021  0.5000050E+01  0.7818608E-02  0.2136455E+00
        -11   -1    0    0    0    0  0.00000000000E+00  0.00000000000E+00  0.50000499739E+01  0.50000500000E+01  0.51100000000E-03 0. -1.
         11   -1    0    0    0    0 -0.00000000000E+00 -0.00000000000E+00 -0.50000499739E+01  0.50000500000E+01  0.51100000000E-03 0.  1.
         50    1    1    2    0    0  0.24370747534E-02  0.14493029612E-01 -0.16852752277E-01  0.50000500000E+01  0.50000000000E+01 0.  0.
         50    1    1    2    0    0 -0.24370747534E-02 -0.14493029612E-01  0.16852752277E-01  0.50000500000E+01  0.50000000000E+01 0.  1.
</event>
<event>
 4    1  0.4967105E-021  0.5000050E+01  0.7818608E-02  0.2136455E+00
        -11   -1    0    0    0    0  0.00000000000E+00  0.00000000000E+00  0.50000499739E+01  0.50000500000E+01  0.51100000000E-03 0. -1.
         11   -1    0    0    0    0 -0.00000000000E+00 -0.00000000000E+00 -0.50000499739E+01  0.50000500000E+01  0.51100000000E-03 0.  1.
         50    1    1    2    0    0  0.71792045464E-02 -0.70590868506E-02  0.19965741031E-01  0.50000500000E+01  0.50000000000E+01 0.  0.
         50    1    1    2    0    0 -0.71792045464E-02  0.70590868506E-02 -0.19965741031E-01  0.50000500000E+01  0.50000000000E+01 0.  1.
</event>
<event>
 4    1  0.4967105E-021  0.5000050E+01  0.7818608E-02  0.2136455E+00
        -11   -1    0    0    0    0  0.00000000000E+00  0.00000000000E+00  0.50000499739E+01  0.50000500000E+01  0.51100000000E-03 0.  1.
         11   -1    0    0    0    0 -0.00000000000E+00 -0.00000000000E+00 -0.50000499739E+01  0.50000500000E+01  0.51100000000E-03 0. -1.
         50    1    1    2    0    0  0.22315019239E-01 -0.29948425212E-03  0.13973995588E-02  0.50000500000E+01  0.50000000000E+01 0.  1.
         50    1    1    2    0    0 -0.22315019239E-01  0.29948425212E-03 -0.13973995588E-02  0.50000500000E+01  0.50000000000E+01 0. -1.
</event>
<event>
 4    1  0.4967105E-021  0.5000050E+01  0.7818608E-02  0.2136455E+00
        -11   -1    0    0    0    0  0.00000000000E+00  0.00000000000E+00  0.50000499739E+01  0.50000500000E+01  0.51100000000E-03 0.  1.
         11   -1    0    0    0    0 -0.00000000000E+00 -0.00000000000E+00 -0.50000499739E+01  0.50000500000E+01  0.51100000000E-03 0. -1.
         50    1    1    2    0    0 -0.81107250319E-04  0.21143571423E-01  0.72763527320E-02  0.50000500000E+01  0.50000000000E+01 0. -1.
         50    1    1    2    0    0  0.81107250319E-04 -0.21143571423E-01 -0.72763527320E-02  0.50000500000E+01  0.50000000000E+01 0.  0.
</event>
<event>
 4    1  0.4967105E-021  0.5000050E+01  0.7818608E-02  0.2136455E+00
        -11   -1    0    0    0    0  0.00000000000E+00  0.00000000000E+00  0.50000499739E+01  0.50000500000E+01  0.51100000000E-03 0. -1.
         11   -1    0    0    0    0 -0.00000000000E+00 -0.00000000000E+00 -0.50000499739E+01  0.50000500000E+01  0.51100000000E-03 0.  1.
         50    1    1    2    0    0 -0.21526629582E-01  0.35728588180E-02 -0.48827654781E-02  0.50000500000E+01  0.50000000000E+01 0.  1.
         50    1    1    2    0    0  0.21526629582E-01 -0.35728588180E-02  0.48827654781E-02  0.50000500000E+01  0.50000000000E+01 0. -1.
</event>
<event>
 4    1  0.4967105E-021  0.5000050E+01  0.7818608E-02  0.2136455E+00
        -11   -1    0    0    0    0  0.00000000000E+00  0.00000000000E+00  0.50000499739E+01  0.50000500000E+01  0.51100000000E-03 0.  1.
         11   -1    0    0    0    0 -0.00000000000E+00 -0.00000000000E+00 -0.50000499739E+01  0.50000500000E+01  0.51100000000E-03 0. -1.
         50    1    1    2    0    0  0.21194929228E-01 -0.33069030572E-02  0.63120414441E-02  0.50000500000E+01  0.50000000000E+01 0. -1.
         50    1    1    2    0    0 -0.21194929228E-01  0.33069030572E-02 -0.63120414441E-02  0.50000500000E+01  0.50000000000E+01 0.  0.
</event>
<event>
 4    1  0.4967105E-021  0.5000050E+01  0.7818608E-02  0.2136455E+00
        -11   -1    0    0    0    0  0.00000000000E+00  0.00000000000E+00  0.50000499739E+01  0.50000500000E+01  0.51100000000E-03 0.  1.
         11   -1    0    0    0    0 -0.00000000000E+00 -0.00000000000E+00 -0.50000499739E+01  0.50000500000E+01  0.51100000000E-03 0. -1.
         50    1    1    2    0    0  0.34416438303E-02 -0.13080774508E-01 -0.17805923903E-01  0.50000500000E+01  0.50000000000E+01 0.  1.
         50    1    1    2    0    0 -0.34416438303E-02  0.13080774508E-01  0.17805923903E-01  0.50000500000E+01  0.50000000000E+01 0.  1.
</event>
<event>
 4    1  0.4967105E-021  0.5000050E+01  0.7818608E-02  0.2136455E+00
        -11   -1    0    0    0    0  0.00000000000E+00  0.00000000000E+00  0.50000499739E+01  0.50000500000E+01  0.51100000000E-03 0. -1.
         11   -1    0    0    0    0 -0.00000000000E+00 -0.00000000000E+00 -0.50000499739E+01  0.50000500000E+01  0.51100000000E-03 0.  1.
         50    1    1    2    0    0  0.20229392309E-02 -0.91037216463E-03 -0.22250425600E-01  0.50000500000E+01  0.50000000000E+01 0.  0.
         50    1    1    2    0    0 -0.20229392309E-02  0.91037216463E-03  0.22250425600E-01  0.50000500000E+01  0.50000000000E+01 0. -1.
</event>
<event>
 4    1  0.4967105E-021  0.5000050E+01  0.7818608E-02  0.2136455E+00
        -11   -1    0    0    0    0  0.00000000000E+00  0.00000000000E+00  0.50000499739E+01  0.50000500000E+01  0.51100000000E-03 0.  1.
         11   -1    0    0    0    0 -0.00000000000E+00 -0.00000000000E+00 -0.50000499739E+01  0.50000500000E+01  0.51100000000E-03 0. -1.
         50    1    1    2    0    0  0.46227271210E-02  0.16426293371E-01  0.14450251902E-01  0.50000500000E+01  0.50000000000E+01 0.  1.
         50    1    1    2    0    0 -0.46227271210E-02 -0.16426293371E-01 -0.14450251902E-01  0.50000500000E+01  0.50000000000E+01 0. -1.
</event>
<event>
 4    1  0.4967105E-021  0.5000050E+01  0.7818608E-02  0.2136455E+00
        -11   -1    0    0    0    0  0.00000000000E+00  0.00000000000E+00  0.50000499739E+01  0.50000500000E+01  0.51100000000E-03 0.  1.
         11   -1    0    0    0    0 -0.00000000000E+00 -0.00000000000E+00 -0.50000499739E+01  0.50000500000E+01  0.51100000000E-03 0. -1.
         50    1    1    2    0    0  0.32971237996E-02 -0.12920052129E-01 -0.17950034195E-01  0.50000500000E+01  0.50000000000E+01 0.  1.
         50    1    1    2    0    0 -0.32971237996E-02  0.12920052129E-01  0.17950034195E-01  0.50000500000E+01  0.50000000000E+01 0.  0.
</event>
<event>
 4    1  0.4967105E-021  0.5000050E+01  0.7818608E-02  0.2136455E+00
        -11   -1    0    0    0    0  0.00000000000E+00  0.00000000000E+00  0.50000499739E+01  0.50000500000E+01  0.51100000000E-03 0. -1.
         11   -1    0    0    0    0 -0.00000000000E+00 -0.00000000000E+00 -0.50000499739E+01  0.50000500000E+01  0.51100000000E-03 0.  1.
         50    1    1    2    0    0 -0.20738424531E-01  0.20198592087E-02  0.81142107893E-02  0.50000500000E+01  0.50000000000E+01 0.  1.
         50    1    1    2    0    0  0.20738424531E-01 -0.20198592087E-02 -0.81142107893E-02  0.50000500000E+01  0.50000000000E+01 0.  0.
</event>
<event>
 4    1  0.4967105E-021  0.5000050E+01  0.7818608E-02  0.2136455E+00
        -11   -1    0    0    0    0  0.00000000000E+00  0.00000000000E+00  0.50000499739E+01  0.50000500000E+01  0.51100000000E-03 0. -1.
         11   -1    0    0    0    0 -0.00000000000E+00 -0.00000000000E+00 -0.50000499739E+01  0.50000500000E+01  0.51100000000E-03 0.  1.
         50    1    1    2    0    0  0.65669794384E-02  0.73269488683E-02  0.20079668855E-01  0.50000500000E+01  0.50000000000E+01 0.  0.
         50    1    1    2    0    0 -0.65669794384E-02 -0.73269488683E-02 -0.20079668855E-01  0.50000500000E+01  0.50000000000E+01 0.  1.
</event>
<event>
 4    1  0.4967105E-021  0.5000050E+01  0.7818608E-02  0.2136455E+00
        -11   -1    0    0    0    0  0.00000000000E+00  0.00000000000E+00  0.50000499739E+01  0.50000500000E+01  0.51100000000E-03 0. -1.
         11   -1    0    0    0    0 -0.00000000000E+00 -0.00000000000E+00 -0.50000499739E+01  0.50000500000E+01  0.51100000000E-03 0.  1.
         50    1    1    2    0    0  0.12545918964E-01  0.71045685561E-02 -0.17091738442E-01  0.50000500000E+01  0.50000000000E+01 0.  1.
         50    1    1    2    0    0 -0.12545918964E-01 -0.71045685561E-02  0.17091738442E-01  0.50000500000E+01  0.50000000000E+01 0. -1.
</event>
<event>
 4    1  0.4967105E-021  0.5000050E+01  0.7818608E-02  0.2136455E+00
        -11   -1    0    0    0    0  0.00000000000E+00  0.00000000000E+00  0.50000499739E+01  0.50000500000E+01  0.51100000000E-03 0. -1.
         11   -1    0    0    0    0 -0.00000000000E+00 -0.00000000000E+00 -0.50000499739E+01  0.50000500000E+01  0.51100000000E-03 0.  1.
         50    1    1    2    0    0 -0.53980651954E-03  0.18712572197E-01 -0.12229094435E-01  0.50000500000E+01  0.50000000000E+01 0. -1.
         50    1    1    2    0    0  0.53980651954E-03 -0.18712572197E-01  0.12229094435E-01  0.50000500000E+01  0.50000000000E+01 0.  0.
</event>
<event>
 4    1  0.4967105E-021  0.5000050E+01  0.7818608E-02  0.2136455E+00
        -11   -1    0    0    0    0  0.00000000000E+00  0.00000000000E+00  0.50000499739E+01  0.50000500000E+01  0.51100000000E-03 0.  1.
         11   -1    0    0    0    0 -0.00000000000E+00 -0.00000000000E+00 -0.50000499739E+01  0.50000500000E+01  0.51100000000E-03 0. -1.
         50    1    1    2    0    0  0.58363932033E-02 -0.94003329312E-02 -0.19431231437E-01  0.50000500000E+01  0.50000000000E+01 0.  0.
         50    1    1    2    0    0 -0.58363932033E-02  0.94003329312E-02  0.19431231437E-01  0.50000500000E+01  0.50000000000E+01 0.  0.
</event>
<event>
 4    1  0.4967105E-021  0.5000050E+01  0.7818608E-02  0.2136455E+00
        -11   -1    0    0    0    0  0.00000000000E+00  0.00000000000E+00  0.50000499739E+01  0.50000500000E+01  0.51100000000E-03 0. -1.
         11   -1    0    0    0    0 -0.00000000000E+00 -0.00000000000E+00 -0.50000499739E+01  0.50000500000E+01  0.51100000000E-03 0.  1.
         50    1    1    2    0    0 -0.10976019517E-01  0.18549525869E-01 -0.59535355546E-02  0.50000500000E+01  0.50000000000E+01 0.  1.
         50    1    1    2    0    0  0.10976019517E-01 -0.18549525869E-01  0.59535355546E-02  0.50000500000E+01  0.50000000000E+01 0.  0.
</event>
<event>
 4    1  0.4967105E-021  0.5000050E+01  0.7818608E-02  0.2136455E+00
        -11   -1    0    0    0    0  0.00000000000E+00  0.00000000000E+00  0.50000499739E+01  0.50000500000E+01  0.51100000000E-03 0.  1.
         11   -1    0    0    0    0 -0.00000000000E+00 -0.00000000000E+00 -0.50000499739E+01  0.50000500000E+01  0.51100000000E-03 0. -1.
         50    1    1    2    0    0  0.20319697598E-01  0.64409326540E-02 -0.67547595122E-02  0.50000500000E+01  0.50000000000E+01 0. -1.
         50    1    1    2    0    0 -0.20319697598E-01 -0.64409326540E-02  0.67547595122E-02  0.50000500000E+01  0.50000000000E+01 0.  1.
</event>
<event>
 4    1  0.4967105E-021  0.5000050E+01  0.7818608E-02  0.2136455E+00
        -11   -1    0    0    0    0  0.00000000000E+00  0.00000000000E+00  0.50000499739E+01  0.50000500000E+01  0.51100000000E-03 0.  1.
         11   -1    0    0    0    0 -0.00000000000E+00 -0.00000000000E+00 -0.50000499739E+01  0.50000500000E+01  0.51100000000E-03 0. -1.
         50    1    1    2    0    0  0.87051411693E-02 -0.13074003920E-01  0.15915195215E-01  0.50000500000E+01  0.50000000000E+01 0.  0.
         50    1    1    2    0    0 -0.87051411693E-02  0.13074003920E-01 -0.15915195215E-01  0.50000500000E+01  0.50000000000E+01 0.  0.
</event>
<event>
 4    1  0.4967105E-021  0.5000050E+01  0.7818608E-02  0.2136455E+00
        -11   -1    0    0    0    0  0.00000000000E+00  0.00000000000E+00  0.50000499739E+01  0.50000500000E+01  0.51100000000E-03 0.  1.
         11   -1    0    0    0    0 -0.00000000000E+00 -0.00000000000E+00 -0.50000499739E+01  0.50000500000E+01  0.51100000000E-03 0. -1.
         50    1    1    2    0    0 -0.13393972353E-01  0.17804916504E-01 -0.18944531903E-02  0.50000500000E+01  0.50000000000E+01 0.  0.
         50    1    1    2    0    0  0.13393972353E-01 -0.17804916504E-01  0.18944531903E-02  0.50000500000E+01  0.50000000000E+01 0. -1.
</event>
<event>
 4    1  0.4967105E-021  0.5000050E+01  0.7818608E-02  0.2136455E+00
        -11   -1    0    0    0    0  0.00000000000E+00  0.00000000000E+00  0.50000499739E+01  0.50000500000E+01  0.51100000000E-03 0. -1.
         11   -1    0    0    0    0 -0.00000000000E+00 -0.00000000000E+00 -0.50000499739E+01  0.50000500000E+01  0.51100000000E-03 0.  1.
         50    1    1    2    0    0  0.55171673374E-02  0.20740742355E-01 -0.62757446689E-02  0.50000500000E+01  0.50000000000E+01 0. -1.
         50    1    1    2    0    0 -0.55171673374E-02 -0.20740742355E-01  0.62757446689E-02  0.50000500000E+01  0.50000000000E+01 0.  0.
</event>
<event>
 4    1  0.4967105E-021  0.5000050E+01  0.7818608E-02  0.2136455E+00
        -11   -1    0    0    0    0  0.00000000000E+00  0.00000000000E+00  0.50000499739E+01  0.50000500000E+01  0.51100000000E-03 0.  1.
         11   -1    0    0    0    0 -0.00000000000E+00 -0.00000000000E+00 -0.50000499739E+01  0.50000500000E+01  0.51100000000E-03 0. -1.
         50    1    1    2    0    0 -0.10098221505E-01 -0.82777604411E-02  0.18152330553E-01  0.50000500000E+01  0.50000000000E+01 0.  0.
         50    1    1    2    0    0  0.10098221505E-01  0.82777604411E-02 -0.18152330553E-01  0.50000500000E+01  0.50000000000E+01 0.  0.
</event>
<event>
 4    1  0.4967105E-021  0.5000050E+01  0.7818608E-02  0.2136455E+00
        -11   -1    0    0    0    0  0.00000000000E+00  0.00000000000E+00  0.50000499739E+01  0.50000500000E+01  0.51100000000E-03 0. -1.
         11   -1    0    0    0    0 -0.00000000000E+00 -0.00000000000E+00 -0.50000499739E+01  0.50000500000E+01  0.51100000000E-03 0.  1.
         50    1    1    2    0    0 -0.16519769158E-01 -0.10682369987E-01  0.10629520142E-01  0.50000500000E+01  0.50000000000E+01 0. -1.
         50    1    1    2    0    0  0.16519769158E-01  0.10682369987E-01 -0.10629520142E-01  0.50000500000E+01  0.50000000000E+01 0.  1.
</event>
<event>
 4    1  0.4967105E-021  0.5000050E+01  0.7818608E-02  0.2136455E+00
        -11   -1    0    0    0    0  0.00000000000E+00  0.00000000000E+00  0.50000499739E+01  0.50000500000E+01  0.51100000000E-03 0.  1.
         11   -1    0    0    0    0 -0.00000000000E+00 -0.00000000000E+00 -0.50000499739E+01  0.50000500000E+01  0.51100000000E-03 0. -1.
         50    1    1    2    0    0  0.10489831359E-01  0.99911328132E-02  0.17033590437E-01  0.50000500000E+01  0.50000000000E+01 0.  1.
         50    1    1    2    0    0 -0.10489831359E-01 -0.99911328132E-02 -0.17033590437E-01  0.50000500000E+01  0.50000000000E+01 0.  0.
</event>
<event>
 4    1  0.4967105E-021  0.5000050E+01  0.7818608E-02  0.2136455E+00
        -11   -1    0    0    0    0  0.00000000000E+00  0.00000000000E+00  0.50000499739E+01  0.50000500000E+01  0.51100000000E-03 0.  1.
         11   -1    0    0    0    0 -0.00000000000E+00 -0.00000000000E+00 -0.50000499739E+01  0.50000500000E+01  0.51100000000E-03 0. -1.
         50    1    1    2    0    0  0.47307400251E-02 -0.75137535841E-02  0.20522331882E-01  0.50000500000E+01  0.50000000000E+01 0.  0.
         50    1    1    2    0    0 -0.47307400251E-02  0.75137535841E-02 -0.20522331882E-01  0.50000500000E+01  0.50000000000E+01 0. -1.
</event>
<event>
 4    1  0.4967105E-021  0.5000050E+01  0.7818608E-02  0.2136455E+00
        -11   -1    0    0    0    0  0.00000000000E+00  0.00000000000E+00  0.50000499739E+01  0.50000500000E+01  0.51100000000E-03 0.  1.
         11   -1    0    0    0    0 -0.00000000000E+00 -0.00000000000E+00 -0.50000499739E+01  0.50000500000E+01  0.51100000000E-03 0. -1.
         50    1    1    2    0    0  0.28067277717E-02 -0.15555531495E-01 -0.15816137934E-01  0.50000500000E+01  0.50000000000E+01 0.  0.
         50    1    1    2    0    0 -0.28067277717E-02  0.15555531495E-01  0.15816137934E-01  0.50000500000E+01  0.50000000000E+01 0.  0.
</event>
<event>
 4    1  0.4967105E-021  0.5000050E+01  0.7818608E-02  0.2136455E+00
        -11   -1    0    0    0    0  0.00000000000E+00  0.00000000000E+00  0.50000499739E+01  0.50000500000E+01  0.51100000000E-03 0.  1.
         11   -1    0    0    0    0 -0.00000000000E+00 -0.00000000000E+00 -0.50000499739E+01  0.50000500000E+01  0.51100000000E-03 0. -1.
         50    1    1    2    0    0 -0.11752906431E-02 -0.18571228135E-01 -0.12398817583E-01  0.50000500000E+01  0.50000000000E+01 0. -1.
         50    1    1    2    0    0  0.11752906431E-02  0.18571228135E-01  0.12398817583E-01  0.50000500000E+01  0.50000000000E+01 0.  1.
</event>
<event>
 4    1  0.4967105E-021  0.5000050E+01  0.7818608E-02  0.2136455E+00
        -11   -1    0    0    0    0  0.00000000000E+00  0.00000000000E+00  0.50000499739E+01  0.50000500000E+01  0.51100000000E-03 0. -1.
         11   -1    0    0    0    0 -0.00000000000E+00 -0.00000000000E+00 -0.50000499739E+01  0.50000500000E+01  0.51100000000E-03 0.  1.
         50    1    1    2    0    0 -0.21025967589E-01  0.62858000176E-02 -0.42895110547E-02  0.50000500000E+01  0.50000000000E+01 0.  1.
         50    1    1    2    0    0  0.21025967589E-01 -0.62858000176E-02  0.42895110547E-02  0.50000500000E+01  0.50000000000E+01 0. -1.
</event>
<event>
 4    1  0.4967105E-021  0.5000050E+01  0.7818608E-02  0.2136455E+00
        -11   -1    0    0    0    0  0.00000000000E+00  0.00000000000E+00  0.50000499739E+01  0.50000500000E+01  0.51100000000E-03 0.  1.
         11   -1    0    0    0    0 -0.00000000000E+00 -0.00000000000E+00 -0.50000499739E+01  0.50000500000E+01  0.51100000000E-03 0. -1.
         50    1    1    2    0    0 -0.16136884189E-01 -0.98056546151E-03 -0.15448040654E-01  0.50000500000E+01  0.50000000000E+01 0.  1.
         50    1    1    2    0    0  0.16136884189E-01  0.98056546151E-03  0.15448040654E-01  0.50000500000E+01  0.50000000000E+01 0.  0.
</event>
<event>
 4    1  0.4967105E-021  0.5000050E+01  0.7818608E-02  0.2136455E+00
        -11   -1    0    0    0    0  0.00000000000E+00  0.00000000000E+00  0.50000499739E+01  0.50000500000E+01  0.51100000000E-03 0. -1.
         11   -1    0    0    0    0 -0.00000000000E+00 -0.00000000000E+00 -0.50000499739E+01  0.50000500000E+01  0.51100000000E-03 0.  1.
         50    1    1    2    0    0  0.49092721588E-02 -0.21425572903E-01 -0.41044332898E-02  0.50000500000E+01  0.50000000000E+01 0. -1.
         50    1    1    2    0    0 -0.49092721588E-02  0.21425572903E-01  0.41044332898E-02  0.50000500000E+01  0.50000000000E+01 0.  1.
</event>
<event>
 4    1  0.4967105E-021  0.5000050E+01  0.7818608E-02  0.2136455E+00
        -11   -1    0    0    0    0  0.00000000000E+00  0.00000000000E+00  0.50000499739E+01  0.50000500000E+01  0.51100000000E-03 0. -1.
         11   -1    0    0    0    0 -0.00000000000E+00 -0.00000000000E+00 -0.50000499739E+01  0.50000500000E+01  0.51100000000E-03 0.  1.
         50    1    1    2    0    0  0.15749598355E-01  0.61446905874E-02 -0.14635416948E-01  0.50000500000E+01  0.50000000000E+01 0. -1.
         50    1    1    2    0    0 -0.15749598355E-01 -0.61446905874E-02  0.14635416948E-01  0.50000500000E+01  0.50000000000E+01 0.  1.
</event>
<event>
 4    1  0.4967105E-021  0.5000050E+01  0.7818608E-02  0.2136455E+00
        -11   -1    0    0    0    0  0.00000000000E+00  0.00000000000E+00  0.50000499739E+01  0.50000500000E+01  0.51100000000E-03 0. -1.
         11   -1    0    0    0    0 -0.00000000000E+00 -0.00000000000E+00 -0.50000499739E+01  0.50000500000E+01  0.51100000000E-03 0.  1.
         50    1    1    2    0    0 -0.19889529456E-01  0.40304305470E-03  0.10210126067E-01  0.50000500000E+01  0.50000000000E+01 0.  1.
         50    1    1    2    0    0  0.19889529456E-01 -0.40304305470E-03 -0.10210126067E-01  0.50000500000E+01  0.50000000000E+01 0. -1.
</event>
<event>
 4    1  0.4967105E-021  0.5000050E+01  0.7818608E-02  0.2136455E+00
        -11   -1    0    0    0    0  0.00000000000E+00  0.00000000000E+00  0.50000499739E+01  0.50000500000E+01  0.51100000000E-03 0. -1.
         11   -1    0    0    0    0 -0.00000000000E+00 -0.00000000000E+00 -0.50000499739E+01  0.50000500000E+01  0.51100000000E-03 0.  1.
         50    1    1    2    0    0 -0.17909053387E-01 -0.15092757456E-02  0.13303773656E-01  0.50000500000E+01  0.50000000000E+01 0. -1.
         50    1    1    2    0    0  0.17909053387E-01  0.15092757456E-02 -0.13303773656E-01  0.50000500000E+01  0.50000000000E+01 0.  1.
</event>
<event>
 4    1  0.4967105E-021  0.5000050E+01  0.7818608E-02  0.2136455E+00
        -11   -1    0    0    0    0  0.00000000000E+00  0.00000000000E+00  0.50000499739E+01  0.50000500000E+01  0.51100000000E-03 0.  1.
         11   -1    0    0    0    0 -0.00000000000E+00 -0.00000000000E+00 -0.50000499739E+01  0.50000500000E+01  0.51100000000E-03 0. -1.
         50    1    1    2    0    0  0.23783597855E-02  0.38132198209E-03  0.22230620735E-01  0.50000500000E+01  0.50000000000E+01 0.  0.
         50    1    1    2    0    0 -0.23783597855E-02 -0.38132198209E-03 -0.22230620735E-01  0.50000500000E+01  0.50000000000E+01 0. -1.
</event>
<event>
 4    1  0.4967105E-021  0.5000050E+01  0.7818608E-02  0.2136455E+00
        -11   -1    0    0    0    0  0.00000000000E+00  0.00000000000E+00  0.50000499739E+01  0.50000500000E+01  0.51100000000E-03 0. -1.
         11   -1    0    0    0    0 -0.00000000000E+00 -0.00000000000E+00 -0.50000499739E+01  0.50000500000E+01  0.51100000000E-03 0.  1.
         50    1    1    2    0    0 -0.15251493383E-01 -0.60822565901E-02 -0.15178952677E-01  0.50000500000E+01  0.50000000000E+01 0.  1.
         50    1    1    2    0    0  0.15251493383E-01  0.60822565901E-02  0.15178952677E-01  0.50000500000E+01  0.50000000000E+01 0. -1.
</event>
<event>
 4    1  0.4967105E-021  0.5000050E+01  0.7818608E-02  0.2136455E+00
        -11   -1    0    0    0    0  0.00000000000E+00  0.00000000000E+00  0.50000499739E+01  0.50000500000E+01  0.51100000000E-03 0. -1.
         11   -1    0    0    0    0 -0.00000000000E+00 -0.00000000000E+00 -0.50000499739E+01  0.50000500000E+01  0.51100000000E-03 0.  1.
         50    1    1    2    0    0  0.15833219976E-01 -0.59774779079E-02  0.14614424486E-01  0.50000500000E+01  0.50000000000E+01 0. -1.
         50    1    1    2    0    0 -0.15833219976E-01  0.59774779079E-02 -0.14614424486E-01  0.50000500000E+01  0.50000000000E+01 0.  0.
</event>
<event>
 4    1  0.4967105E-021  0.5000050E+01  0.7818608E-02  0.2136455E+00
        -11   -1    0    0    0    0  0.00000000000E+00  0.00000000000E+00  0.50000499739E+01  0.50000500000E+01  0.51100000000E-03 0. -1.
         11   -1    0    0    0    0 -0.00000000000E+00 -0.00000000000E+00 -0.50000499739E+01  0.50000500000E+01  0.51100000000E-03 0.  1.
         50    1    1    2    0    0  0.20759848618E-01 -0.76581617480E-02 -0.32223817255E-02  0.50000500000E+01  0.50000000000E+01 0.  1.
         50    1    1    2    0    0 -0.20759848618E-01  0.76581617480E-02  0.32223817255E-02  0.50000500000E+01  0.50000000000E+01 0. -1.
</event>
<event>
 4    1  0.4967105E-021  0.5000050E+01  0.7818608E-02  0.2136455E+00
        -11   -1    0    0    0    0  0.00000000000E+00  0.00000000000E+00  0.50000499739E+01  0.50000500000E+01  0.51100000000E-03 0. -1.
         11   -1    0    0    0    0 -0.00000000000E+00 -0.00000000000E+00 -0.50000499739E+01  0.50000500000E+01  0.51100000000E-03 0.  1.
         50    1    1    2    0    0 -0.35825131661E-02  0.21310337402E-01  0.57478360488E-02  0.50000500000E+01  0.50000000000E+01 0.  1.
         50    1    1    2    0    0  0.35825131661E-02 -0.21310337402E-01 -0.57478360488E-02  0.50000500000E+01  0.50000000000E+01 0. -1.
</event>
<event>
 4    1  0.4967105E-021  0.5000050E+01  0.7818608E-02  0.2136455E+00
        -11   -1    0    0    0    0  0.00000000000E+00  0.00000000000E+00  0.50000499739E+01  0.50000500000E+01  0.51100000000E-03 0. -1.
         11   -1    0    0    0    0 -0.00000000000E+00 -0.00000000000E+00 -0.50000499739E+01  0.50000500000E+01  0.51100000000E-03 0.  1.
         50    1    1    2    0    0  0.15059762610E-01  0.14627859408E-01 -0.76962185035E-02  0.50000500000E+01  0.50000000000E+01 0.  1.
         50    1    1    2    0    0 -0.15059762610E-01 -0.14627859408E-01  0.76962185035E-02  0.50000500000E+01  0.50000000000E+01 0.  1.
</event>
<event>
 4    1  0.4967105E-021  0.5000050E+01  0.7818608E-02  0.2136455E+00
        -11   -1    0    0    0    0  0.00000000000E+00  0.00000000000E+00  0.50000499739E+01  0.50000500000E+01  0.51100000000E-03 0. -1.
         11   -1    0    0    0    0 -0.00000000000E+00 -0.00000000000E+00 -0.50000499739E+01  0.50000500000E+01  0.51100000000E-03 0.  1.
         50    1    1    2    0    0 -0.68268930596E-02 -0.11660538499E-01 -0.17816505636E-01  0.50000500000E+01  0.50000000000E+01 0.  1.
         50    1    1    2    0    0  0.68268930596E-02  0.11660538499E-01  0.17816505636E-01  0.50000500000E+01  0.50000000000E+01 0. -1.
</event>
<event>
 4    1  0.4967105E-021  0.5000050E+01  0.7818608E-02  0.2136455E+00
        -11   -1    0    0    0    0  0.00000000000E+00  0.00000000000E+00  0.50000499739E+01  0.50000500000E+01  0.51100000000E-03 0.  1.
         11   -1    0    0    0    0 -0.00000000000E+00 -0.00000000000E+00 -0.50000499739E+01  0.50000500000E+01  0.51100000000E-03 0. -1.
         50    1    1    2    0    0 -0.29678365818E-02  0.21844267991E-01 -0.37446497775E-02  0.50000500000E+01  0.50000000000E+01 0.  1.
         50    1    1    2    0    0  0.29678365818E-02 -0.21844267991E-01  0.37446497775E-02  0.50000500000E+01  0.50000000000E+01 0.  0.
</event>
<event>
 4    1  0.4967105E-021  0.5000050E+01  0.7818608E-02  0.2136455E+00
        -11   -1    0    0    0    0  0.00000000000E+00  0.00000000000E+00  0.50000499739E+01  0.50000500000E+01  0.51100000000E-03 0.  1.
         11   -1    0    0    0    0 -0.00000000000E+00 -0.00000000000E+00 -0.50000499739E+01  0.50000500000E+01  0.51100000000E-03 0. -1.
         50    1    1    2    0    0 -0.29555162140E-02 -0.14192291683E-01 -0.17024872413E-01  0.50000500000E+01  0.50000000000E+01 0.  0.
         50    1    1    2    0    0  0.29555162140E-02  0.14192291683E-01  0.17024872413E-01  0.50000500000E+01  0.50000000000E+01 0.  0.
</event>
<event>
 4    1  0.4967105E-021  0.5000050E+01  0.7818608E-02  0.2136455E+00
        -11   -1    0    0    0    0  0.00000000000E+00  0.00000000000E+00  0.50000499739E+01  0.50000500000E+01  0.51100000000E-03 0.  1.
         11   -1    0    0    0    0 -0.00000000000E+00 -0.00000000000E+00 -0.50000499739E+01  0.50000500000E+01  0.51100000000E-03 0. -1.
         50    1    1    2    0    0 -0.18836309875E-01 -0.11562250925E-01 -0.33926809218E-02  0.50000500000E+01  0.50000000000E+01 0. -1.
         50    1    1    2    0    0  0.18836309875E-01  0.11562250925E-01  0.33926809218E-02  0.50000500000E+01  0.50000000000E+01 0.  0.
</event>
<event>
 4    1  0.4967105E-021  0.5000050E+01  0.7818608E-02  0.2136455E+00
        -11   -1    0    0    0    0  0.00000000000E+00  0.00000000000E+00  0.50000499739E+01  0.50000500000E+01  0.51100000000E-03 0. -1.
         11   -1    0    0    0    0 -0.00000000000E+00 -0.00000000000E+00 -0.50000499739E+01  0.50000500000E+01  0.51100000000E-03 0.  1.
         50    1    1    2    0    0  0.16921442330E-01 -0.12145307876E-01  0.81338051400E-02  0.50000500000E+01  0.50000000000E+01 0.  0.
         50    1    1    2    0    0 -0.16921442330E-01  0.12145307876E-01 -0.81338051400E-02  0.50000500000E+01  0.50000000000E+01 0.  0.
</event>
<event>
 4    1  0.4967105E-021  0.5000050E+01  0.7818608E-02  0.2136455E+00
        -11   -1    0    0    0    0  0.00000000000E+00  0.00000000000E+00  0.50000499739E+01  0.50000500000E+01  0.51100000000E-03 0. -1.
         11   -1    0    0    0    0 -0.00000000000E+00 -0.00000000000E+00 -0.50000499739E+01  0.50000500000E+01  0.51100000000E-03 0.  1.
         50    1    1    2    0    0 -0.17914304197E-01 -0.11294892256E-01  0.71767411866E-02  0.50000500000E+01  0.50000000000E+01 0.  0.
         50    1    1    2    0    0  0.17914304197E-01  0.11294892256E-01 -0.71767411866E-02  0.50000500000E+01  0.50000000000E+01 0. -1.
</event>
<event>
 4    1  0.4967105E-021  0.5000050E+01  0.7818608E-02  0.2136455E+00
        -11   -1    0    0    0    0  0.00000000000E+00  0.00000000000E+00  0.50000499739E+01  0.50000500000E+01  0.51100000000E-03 0. -1.
         11   -1    0    0    0    0 -0.00000000000E+00 -0.00000000000E+00 -0.50000499739E+01  0.50000500000E+01  0.51100000000E-03 0.  1.
         50    1    1    2    0    0  0.10367804183E-01 -0.15075279035E-01  0.12854847274E-01  0.50000500000E+01  0.50000000000E+01 0.  1.
         50    1    1    2    0    0 -0.10367804183E-01  0.15075279035E-01 -0.12854847274E-01  0.50000500000E+01  0.50000000000E+01 0. -1.
</event>
<event>
 4    1  0.4967105E-021  0.5000050E+01  0.7818608E-02  0.2136455E+00
        -11   -1    0    0    0    0  0.00000000000E+00  0.00000000000E+00  0.50000499739E+01  0.50000500000E+01  0.51100000000E-03 0. -1.
         11   -1    0    0    0    0 -0.00000000000E+00 -0.00000000000E+00 -0.50000499739E+01  0.50000500000E+01  0.51100000000E-03 0.  1.
         50    1    1    2    0    0 -0.15119605712E-01  0.15083068716E-01  0.66257875919E-02  0.50000500000E+01  0.50000000000E+01 0.  0.
         50    1    1    2    0    0  0.15119605712E-01 -0.15083068716E-01 -0.66257875919E-02  0.50000500000E+01  0.50000000000E+01 0.  0.
</event>
<event>
 4    1  0.4967105E-021  0.5000050E+01  0.7818608E-02  0.2136455E+00
        -11   -1    0    0    0    0  0.00000000000E+00  0.00000000000E+00  0.50000499739E+01  0.50000500000E+01  0.51100000000E-03 0. -1.
         11   -1    0    0    0    0 -0.00000000000E+00 -0.00000000000E+00 -0.50000499739E+01  0.50000500000E+01  0.51100000000E-03 0.  1.
         50    1    1    2    0    0 -0.58419369743E-02 -0.13009356486E-01 -0.17222976404E-01  0.50000500000E+01  0.50000000000E+01 0.  0.
         50    1    1    2    0    0  0.58419369743E-02  0.13009356486E-01  0.17222976404E-01  0.50000500000E+01  0.50000000000E+01 0. -1.
</event>
<event>
 4    1  0.4967105E-021  0.5000050E+01  0.7818608E-02  0.2136455E+00
        -11   -1    0    0    0    0  0.00000000000E+00  0.00000000000E+00  0.50000499739E+01  0.50000500000E+01  0.51100000000E-03 0. -1.
         11   -1    0    0    0    0 -0.00000000000E+00 -0.00000000000E+00 -0.50000499739E+01  0.50000500000E+01  0.51100000000E-03 0.  1.
         50    1    1    2    0    0  0.13077218231E-01  0.16371116529E-02 -0.18064017515E-01  0.50000500000E+01  0.50000000000E+01 0.  1.
         50    1    1    2    0    0 -0.13077218231E-01 -0.16371116529E-02  0.18064017515E-01  0.50000500000E+01  0.50000000000E+01 0.  1.
</event>
<event>
 4    1  0.4967105E-021  0.5000050E+01  0.7818608E-02  0.2136455E+00
        -11   -1    0    0    0    0  0.00000000000E+00  0.00000000000E+00  0.50000499739E+01  0.50000500000E+01  0.51100000000E-03 0.  1.
         11   -1    0    0    0    0 -0.00000000000E+00 -0.00000000000E+00 -0.50000499739E+01  0.50000500000E+01  0.51100000000E-03 0. -1.
         50    1    1    2    0    0  0.20820205026E-01 -0.34856901023E-02  0.73737051200E-02  0.50000500000E+01  0.50000000000E+01 0.  0.
         50    1    1    2    0    0 -0.20820205026E-01  0.34856901023E-02 -0.73737051200E-02  0.50000500000E+01  0.50000000000E+01 0.  1.
</event>
<event>
 4    1  0.4967105E-021  0.5000050E+01  0.7818608E-02  0.2136455E+00
        -11   -1    0    0    0    0  0.00000000000E+00  0.00000000000E+00  0.50000499739E+01  0.50000500000E+01  0.51100000000E-03 0. -1.
         11   -1    0    0    0    0 -0.00000000000E+00 -0.00000000000E+00 -0.50000499739E+01  0.50000500000E+01  0.51100000000E-03 0.  1.
         50    1    1    2    0    0 -0.88111887037E-02 -0.17186961105E-01  0.11268266131E-01  0.50000500000E+01  0.50000000000E+01 0.  1.
         50    1    1    2    0    0  0.88111887037E-02  0.17186961105E-01 -0.11268266131E-01  0.50000500000E+01  0.50000000000E+01 0. -1.
</event>
<event>
 4    1  0.4967105E-021  0.5000050E+01  0.7818608E-02  0.2136455E+00
        -11   -1    0    0    0    0  0.00000000000E+00  0.00000000000E+00  0.50000499739E+01  0.50000500000E+01  0.51100000000E-03 0.  1.
         11   -1    0    0    0    0 -0.00000000000E+00 -0.00000000000E+00 -0.50000499739E+01  0.50000500000E+01  0.51100000000E-03 0. -1.
         50    1    1    2    0    0  0.25284679573E-02 -0.21857728221E-01 -0.39810886458E-02  0.50000500000E+01  0.50000000000E+01 0.  0.
         50    1    1    2    0    0 -0.25284679573E-02  0.21857728221E-01  0.39810886458E-02  0.50000500000E+01  0.50000000000E+01 0. -1.
</event>
<event>
 4    1  0.4967105E-021  0.5000050E+01  0.7818608E-02  0.2136455E+00
        -11   -1    0    0    0    0  0.00000000000E+00  0.00000000000E+00  0.50000499739E+01  0.50000500000E+01  0.51100000000E-03 0.  1.
         11   -1    0    0    0    0 -0.00000000000E+00 -0.00000000000E+00 -0.50000499739E+01  0.50000500000E+01  0.51100000000E-03 0. -1.
         50    1    1    2    0    0 -0.21547405621E-01 -0.25145433371E-02  0.54211514291E-02  0.50000500000E+01  0.50000000000E+01 0.  1.
         50    1    1    2    0    0  0.21547405621E-01  0.25145433371E-02 -0.54211514291E-02  0.50000500000E+01  0.50000000000E+01 0. -1.
</event>
<event>
 4    1  0.4967105E-021  0.5000050E+01  0.7818608E-02  0.2136455E+00
        -11   -1    0    0    0    0  0.00000000000E+00  0.00000000000E+00  0.50000499739E+01  0.50000500000E+01  0.51100000000E-03 0. -1.
         11   -1    0    0    0    0 -0.00000000000E+00 -0.00000000000E+00 -0.50000499739E+01  0.50000500000E+01  0.51100000000E-03 0.  1.
         50    1    1    2    0    0 -0.14872812853E-01 -0.88226650208E-02 -0.14176124991E-01  0.50000500000E+01  0.50000000000E+01 0.  0.
         50    1    1    2    0    0  0.14872812853E-01  0.88226650208E-02  0.14176124991E-01  0.50000500000E+01  0.50000000000E+01 0.  1.
</event>
<event>
 4    1  0.4967105E-021  0.5000050E+01  0.7818608E-02  0.2136455E+00
        -11   -1    0    0    0    0  0.00000000000E+00  0.00000000000E+00  0.50000499739E+01  0.50000500000E+01  0.51100000000E-03 0. -1.
         11   -1    0    0    0    0 -0.00000000000E+00 -0.00000000000E+00 -0.50000499739E+01  0.50000500000E+01  0.51100000000E-03 0.  1.
         50    1    1    2    0    0 -0.77821354224E-02  0.17344814791E-01 -0.11772776568E-01  0.50000500000E+01  0.50000000000E+01 0.  0.
         50    1    1    2    0    0  0.77821354224E-02 -0.17344814791E-01  0.11772776568E-01  0.50000500000E+01  0.50000000000E+01 0.  0.
</event>
<event>
 4    1  0.4967105E-021  0.5000050E+01  0.7818608E-02  0.2136455E+00
        -11   -1    0    0    0    0  0.00000000000E+00  0.00000000000E+00  0.50000499739E+01  0.50000500000E+01  0.51100000000E-03 0.  1.
         11   -1    0    0    0    0 -0.00000000000E+00 -0.00000000000E+00 -0.50000499739E+01  0.50000500000E+01  0.51100000000E-03 0. -1.
         50    1    1    2    0    0 -0.19384539052E-01  0.76129350973E-02  0.81415824584E-02  0.50000500000E+01  0.50000000000E+01 0.  1.
         50    1    1    2    0    0  0.19384539052E-01 -0.76129350973E-02 -0.81415824584E-02  0.50000500000E+01  0.50000000000E+01 0. -1.
</event>
<event>
 4    1  0.4967105E-021  0.5000050E+01  0.7818608E-02  0.2136455E+00
        -11   -1    0    0    0    0  0.00000000000E+00  0.00000000000E+00  0.50000499739E+01  0.50000500000E+01  0.51100000000E-03 0.  1.
         11   -1    0    0    0    0 -0.00000000000E+00 -0.00000000000E+00 -0.50000499739E+01  0.50000500000E+01  0.51100000000E-03 0. -1.
         50    1    1    2    0    0 -0.18874275011E-01  0.57221545421E-02  0.10536659347E-01  0.50000500000E+01  0.50000000000E+01 0.  0.
         50    1    1    2    0    0  0.18874275011E-01 -0.57221545421E-02 -0.10536659347E-01  0.50000500000E+01  0.50000000000E+01 0.  1.
</event>
<event>
 4    1  0.4967105E-021  0.5000050E+01  0.7818608E-02  0.2136455E+00
        -11   -1    0    0    0    0  0.00000000000E+00  0.00000000000E+00  0.50000499739E+01  0.50000500000E+01  0.51100000000E-03 0. -1.
         11   -1    0    0    0    0 -0.00000000000E+00 -0.00000000000E+00 -0.50000499739E+01  0.50000500000E+01  0.51100000000E-03 0.  1.
         50    1    1    2    0    0  0.16878260530E-01 -0.14655311669E-01  0.59047553294E-03  0.50000500000E+01  0.50000000000E+01 0.  1.
         50    1    1    2    0    0 -0.16878260530E-01  0.14655311669E-01 -0.59047553294E-03  0.50000500000E+01  0.50000000000E+01 0. -1.
</event>
<event>
 4    1  0.4967105E-021  0.5000050E+01  0.7818608E-02  0.2136455E+00
        -11   -1    0    0    0    0  0.00000000000E+00  0.00000000000E+00  0.50000499739E+01  0.50000500000E+01  0.51100000000E-03 0.  1.
         11   -1    0    0    0    0 -0.00000000000E+00 -0.00000000000E+00 -0.50000499739E+01  0.50000500000E+01  0.51100000000E-03 0. -1.
         50    1    1    2    0    0  0.10758114999E-01  0.16698293461E-01  0.10268030831E-01  0.50000500000E+01  0.50000000000E+01 0. -1.
         50    1    1    2    0    0 -0.10758114999E-01 -0.16698293461E-01 -0.10268030831E-01  0.50000500000E+01  0.50000000000E+01 0.  0.
</event>
<event>
 4    1  0.4967105E-021  0.5000050E+01  0.7818608E-02  0.2136455E+00
        -11   -1    0    0    0    0  0.00000000000E+00  0.00000000000E+00  0.50000499739E+01  0.50000500000E+01  0.51100000000E-03 0.  1.
         11   -1    0    0    0    0 -0.00000000000E+00 -0.00000000000E+00 -0.50000499739E+01  0.50000500000E+01  0.51100000000E-03 0. -1.
         50    1    1    2    0    0 -0.21054083734E-02 -0.95909053238E-02 -0.20089407424E-01  0.50000500000E+01  0.50000000000E+01 0.  1.
         50    1    1    2    0    0  0.21054083734E-02  0.95909053238E-02  0.20089407424E-01  0.50000500000E+01  0.50000000000E+01 0.  1.
</event>
<event>
 4    1  0.4967105E-021  0.5000050E+01  0.7818608E-02  0.2136455E+00
        -11   -1    0    0    0    0  0.00000000000E+00  0.00000000000E+00  0.50000499739E+01  0.50000500000E+01  0.51100000000E-03 0.  1.
         11   -1    0    0    0    0 -0.00000000000E+00 -0.00000000000E+00 -0.50000499739E+01  0.50000500000E+01  0.51100000000E-03 0. -1.
         50    1    1    2    0    0  0.10337804289E-01 -0.25577834774E-02  0.19661893250E-01  0.50000500000E+01  0.50000000000E+01 0.  1.
         50    1    1    2    0    0 -0.10337804289E-01  0.25577834774E-02 -0.19661893250E-01  0.50000500000E+01  0.50000000000E+01 0. -1.
</event>
<event>
 4    1  0.4967105E-021  0.5000050E+01  0.7818608E-02  0.2136455E+00
        -11   -1    0    0    0    0  0.00000000000E+00  0.00000000000E+00  0.50000499739E+01  0.50000500000E+01  0.51100000000E-03 0.  1.
         11   -1    0    0    0    0 -0.00000000000E+00 -0.00000000000E+00 -0.50000499739E+01  0.50000500000E+01  0.51100000000E-03 0. -1.
         50    1    1    2    0    0  0.12140952498E-01  0.12428839243E-01  0.14075643059E-01  0.50000500000E+01  0.50000000000E+01 0.  1.
         50    1    1    2    0    0 -0.12140952498E-01 -0.12428839243E-01 -0.14075643059E-01  0.50000500000E+01  0.50000000000E+01 0. -1.
</event>
<event>
 4    1  0.4967105E-021  0.5000050E+01  0.7818608E-02  0.2136455E+00
        -11   -1    0    0    0    0  0.00000000000E+00  0.00000000000E+00  0.50000499739E+01  0.50000500000E+01  0.51100000000E-03 0.  1.
         11   -1    0    0    0    0 -0.00000000000E+00 -0.00000000000E+00 -0.50000499739E+01  0.50000500000E+01  0.51100000000E-03 0. -1.
         50    1    1    2    0    0 -0.16581225531E-01  0.68921881589E-02 -0.13325284322E-01  0.50000500000E+01  0.50000000000E+01 0.  1.
         50    1    1    2    0    0  0.16581225531E-01 -0.68921881589E-02  0.13325284322E-01  0.50000500000E+01  0.50000000000E+01 0.  0.
</event>
<event>
 4    1  0.4967105E-021  0.5000050E+01  0.7818608E-02  0.2136455E+00
        -11   -1    0    0    0    0  0.00000000000E+00  0.00000000000E+00  0.50000499739E+01  0.50000500000E+01  0.51100000000E-03 0.  1.
         11   -1    0    0    0    0 -0.00000000000E+00 -0.00000000000E+00 -0.50000499739E+01  0.50000500000E+01  0.51100000000E-03 0. -1.
         50    1    1    2    0    0 -0.11397562878E-01  0.48202210958E-02  0.18624272577E-01  0.50000500000E+01  0.50000000000E+01 0.  0.
         50    1    1    2    0    0  0.11397562878E-01 -0.48202210958E-02 -0.18624272577E-01  0.50000500000E+01  0.50000000000E+01 0. -1.
</event>
<event>
 4    1  0.4967105E-021  0.5000050E+01  0.7818608E-02  0.2136455E+00
        -11   -1    0    0    0    0  0.00000000000E+00  0.00000000000E+00  0.50000499739E+01  0.50000500000E+01  0.51100000000E-03 0.  1.
         11   -1    0    0    0    0 -0.00000000000E+00 -0.00000000000E+00 -0.50000499739E+01  0.50000500000E+01  0.51100000000E-03 0. -1.
         50    1    1    2    0    0  0.11395183081E-01  0.19303661005E-02  0.19142256640E-01  0.50000500000E+01  0.50000000000E+01 0.  0.
         50    1    1    2    0    0 -0.11395183081E-01 -0.19303661005E-02 -0.19142256640E-01  0.50000500000E+01  0.50000000000E+01 0.  0.
</event>
<event>
 4    1  0.4967105E-021  0.5000050E+01  0.7818608E-02  0.2136455E+00
        -11   -1    0    0    0    0  0.00000000000E+00  0.00000000000E+00  0.50000499739E+01  0.50000500000E+01  0.51100000000E-03 0.  1.
         11   -1    0    0    0    0 -0.00000000000E+00 -0.00000000000E+00 -0.50000499739E+01  0.50000500000E+01  0.51100000000E-03 0. -1.
         50    1    1    2    0    0  0.14838943972E-01  0.31465805119E-02 -0.16428854886E-01  0.50000500000E+01  0.50000000000E+01 0. -1.
         50    1    1    2    0    0 -0.14838943972E-01 -0.31465805119E-02  0.16428854886E-01  0.50000500000E+01  0.50000000000E+01 0.  0.
</event>
<event>
 4    1  0.4967105E-021  0.5000050E+01  0.7818608E-02  0.2136455E+00
        -11   -1    0    0    0    0  0.00000000000E+00  0.00000000000E+00  0.50000499739E+01  0.50000500000E+01  0.51100000000E-03 0.  1.
         11   -1    0    0    0    0 -0.00000000000E+00 -0.00000000000E+00 -0.50000499739E+01  0.50000500000E+01  0.51100000000E-03 0. -1.
         50    1    1    2    0    0 -0.19887246376E-01 -0.63645471535E-02 -0.79995294310E-02  0.50000500000E+01  0.50000000000E+01 0.  0.
         50    1    1    2    0    0  0.19887246376E-01  0.63645471535E-02  0.79995294310E-02  0.50000500000E+01  0.50000000000E+01 0. -1.
</event>
<event>
 4    1  0.4967105E-021  0.5000050E+01  0.7818608E-02  0.2136455E+00
        -11   -1    0    0    0    0  0.00000000000E+00  0.00000000000E+00  0.50000499739E+01  0.50000500000E+01  0.51100000000E-03 0.  1.
         11   -1    0    0    0    0 -0.00000000000E+00 -0.00000000000E+00 -0.50000499739E+01  0.50000500000E+01  0.51100000000E-03 0. -1.
         50    1    1    2    0    0  0.21769535320E-01  0.30784210838E-02 -0.40759238944E-02  0.50000500000E+01  0.50000000000E+01 0.  1.
         50    1    1    2    0    0 -0.21769535320E-01 -0.30784210838E-02  0.40759238944E-02  0.50000500000E+01  0.50000000000E+01 0. -1.
</event>
<event>
 4    1  0.4967105E-021  0.5000050E+01  0.7818608E-02  0.2136455E+00
        -11   -1    0    0    0    0  0.00000000000E+00  0.00000000000E+00  0.50000499739E+01  0.50000500000E+01  0.51100000000E-03 0.  1.
         11   -1    0    0    0    0 -0.00000000000E+00 -0.00000000000E+00 -0.50000499739E+01  0.50000500000E+01  0.51100000000E-03 0. -1.
         50    1    1    2    0    0 -0.15322835127E-01 -0.11715073097E-01  0.11312395237E-01  0.50000500000E+01  0.50000000000E+01 0. -1.
         50    1    1    2    0    0  0.15322835127E-01  0.11715073097E-01 -0.11312395237E-01  0.50000500000E+01  0.50000000000E+01 0.  0.
</event>
<event>
 4    1  0.4967105E-021  0.5000050E+01  0.7818608E-02  0.2136455E+00
        -11   -1    0    0    0    0  0.00000000000E+00  0.00000000000E+00  0.50000499739E+01  0.50000500000E+01  0.51100000000E-03 0.  1.
         11   -1    0    0    0    0 -0.00000000000E+00 -0.00000000000E+00 -0.50000499739E+01  0.50000500000E+01  0.51100000000E-03 0. -1.
         50    1    1    2    0    0 -0.76482592305E-02  0.96761646734E-02  0.18651500421E-01  0.50000500000E+01  0.50000000000E+01 0. -1.
         50    1    1    2    0    0  0.76482592305E-02 -0.96761646734E-02 -0.18651500421E-01  0.50000500000E+01  0.50000000000E+01 0. -1.
</event>
<event>
 4    1  0.4967105E-021  0.5000050E+01  0.7818608E-02  0.2136455E+00
        -11   -1    0    0    0    0  0.00000000000E+00  0.00000000000E+00  0.50000499739E+01  0.50000500000E+01  0.51100000000E-03 0.  1.
         11   -1    0    0    0    0 -0.00000000000E+00 -0.00000000000E+00 -0.50000499739E+01  0.50000500000E+01  0.51100000000E-03 0. -1.
         50    1    1    2    0    0 -0.14528305193E-01  0.32666031785E-02 -0.16681131613E-01  0.50000500000E+01  0.50000000000E+01 0. -1.
         50    1    1    2    0    0  0.14528305193E-01 -0.32666031785E-02  0.16681131613E-01  0.50000500000E+01  0.50000000000E+01 0.  0.
</event>
<event>
 4    1  0.4967105E-021  0.5000050E+01  0.7818608E-02  0.2136455E+00
        -11   -1    0    0    0    0  0.00000000000E+00  0.00000000000E+00  0.50000499739E+01  0.50000500000E+01  0.51100000000E-03 0. -1.
         11   -1    0    0    0    0 -0.00000000000E+00 -0.00000000000E+00 -0.50000499739E+01  0.50000500000E+01  0.51100000000E-03 0.  1.
         50    1    1    2    0    0  0.66166605098E-02 -0.12587851097E-01  0.17255964431E-01  0.50000500000E+01  0.50000000000E+01 0. -1.
         50    1    1    2    0    0 -0.66166605098E-02  0.12587851097E-01 -0.17255964431E-01  0.50000500000E+01  0.50000000000E+01 0.  1.
</event>
<event>
 4    1  0.4967105E-021  0.5000050E+01  0.7818608E-02  0.2136455E+00
        -11   -1    0    0    0    0  0.00000000000E+00  0.00000000000E+00  0.50000499739E+01  0.50000500000E+01  0.51100000000E-03 0.  1.
         11   -1    0    0    0    0 -0.00000000000E+00 -0.00000000000E+00 -0.50000499739E+01  0.50000500000E+01  0.51100000000E-03 0. -1.
         50    1    1    2    0    0 -0.56501679145E-02  0.16778757514E-01  0.13658381999E-01  0.50000500000E+01  0.50000000000E+01 0.  1.
         50    1    1    2    0    0  0.56501679145E-02 -0.16778757514E-01 -0.13658381999E-01  0.50000500000E+01  0.50000000000E+01 0. -1.
</event>
<event>
 4    1  0.4967105E-021  0.5000050E+01  0.7818608E-02  0.2136455E+00
        -11   -1    0    0    0    0  0.00000000000E+00  0.00000000000E+00  0.50000499739E+01  0.50000500000E+01  0.51100000000E-03 0.  1.
         11   -1    0    0    0    0 -0.00000000000E+00 -0.00000000000E+00 -0.50000499739E+01  0.50000500000E+01  0.51100000000E-03 0. -1.
         50    1    1    2    0    0  0.40747516180E-02 -0.20602134236E-01  0.76779531234E-02  0.50000500000E+01  0.50000000000E+01 0. -1.
         50    1    1    2    0    0 -0.40747516180E-02  0.20602134236E-01 -0.76779531234E-02  0.50000500000E+01  0.50000000000E+01 0.  0.
</event>
<event>
 4    1  0.4967105E-021  0.5000050E+01  0.7818608E-02  0.2136455E+00
        -11   -1    0    0    0    0  0.00000000000E+00  0.00000000000E+00  0.50000499739E+01  0.50000500000E+01  0.51100000000E-03 0. -1.
         11   -1    0    0    0    0 -0.00000000000E+00 -0.00000000000E+00 -0.50000499739E+01  0.50000500000E+01  0.51100000000E-03 0.  1.
         50    1    1    2    0    0  0.18030914737E-01 -0.11529877018E-01  0.64769244013E-02  0.50000500000E+01  0.50000000000E+01 0.  0.
         50    1    1    2    0    0 -0.18030914737E-01  0.11529877018E-01 -0.64769244013E-02  0.50000500000E+01  0.50000000000E+01 0.  0.
</event>
<event>
 4    1  0.4967105E-021  0.5000050E+01  0.7818608E-02  0.2136455E+00
        -11   -1    0    0    0    0  0.00000000000E+00  0.00000000000E+00  0.50000499739E+01  0.50000500000E+01  0.51100000000E-03 0.  1.
         11   -1    0    0    0    0 -0.00000000000E+00 -0.00000000000E+00 -0.50000499739E+01  0.50000500000E+01  0.51100000000E-03 0. -1.
         50    1    1    2    0    0 -0.17235763104E-01  0.13451899608E-01 -0.46880024704E-02  0.50000500000E+01  0.50000000000E+01 0. -1.
         50    1    1    2    0    0  0.17235763104E-01 -0.13451899608E-01  0.46880024704E-02  0.50000500000E+01  0.50000000000E+01 0.  1.
</event>
<event>
 4    1  0.4967105E-021  0.5000050E+01  0.7818608E-02  0.2136455E+00
        -11   -1    0    0    0    0  0.00000000000E+00  0.00000000000E+00  0.50000499739E+01  0.50000500000E+01  0.51100000000E-03 0.  1.
         11   -1    0    0    0    0 -0.00000000000E+00 -0.00000000000E+00 -0.50000499739E+01  0.50000500000E+01  0.51100000000E-03 0. -1.
         50    1    1    2    0    0  0.16674418150E-02  0.16354579224E-01 -0.15157502307E-01  0.50000500000E+01  0.50000000000E+01 0.  0.
         50    1    1    2    0    0 -0.16674418150E-02 -0.16354579224E-01  0.15157502307E-01  0.50000500000E+01  0.50000000000E+01 0.  0.
</event>
<event>
 4    1  0.4967105E-021  0.5000050E+01  0.7818608E-02  0.2136455E+00
        -11   -1    0    0    0    0  0.00000000000E+00  0.00000000000E+00  0.50000499739E+01  0.50000500000E+01  0.51100000000E-03 0.  1.
         11   -1    0    0    0    0 -0.00000000000E+00 -0.00000000000E+00 -0.50000499739E+01  0.50000500000E+01  0.51100000000E-03 0. -1.
         50    1    1    2    0    0 -0.61542095745E-02 -0.30629592173E-02  0.21277840242E-01  0.50000500000E+01  0.50000000000E+01 0.  0.
         50    1    1    2    0    0  0.61542095745E-02  0.30629592173E-02 -0.21277840242E-01  0.50000500000E+01  0.50000000000E+01 0.  0.
</event>
<event>
 4    1  0.4967105E-021  0.5000050E+01  0.7818608E-02  0.2136455E+00
        -11   -1    0    0    0    0  0.00000000000E+00  0.00000000000E+00  0.50000499739E+01  0.50000500000E+01  0.51100000000E-03 0.  1.
         11   -1    0    0    0    0 -0.00000000000E+00 -0.00000000000E+00 -0.50000499739E+01  0.50000500000E+01  0.51100000000E-03 0. -1.
         50    1    1    2    0    0  0.86762517954E-02 -0.16128008386E-01 -0.12830140306E-01  0.50000500000E+01  0.50000000000E+01 0. -1.
         50    1    1    2    0    0 -0.86762517954E-02  0.16128008386E-01  0.12830140306E-01  0.50000500000E+01  0.50000000000E+01 0.  1.
</event>
<event>
 4    1  0.4967105E-021  0.5000050E+01  0.7818608E-02  0.2136455E+00
        -11   -1    0    0    0    0  0.00000000000E+00  0.00000000000E+00  0.50000499739E+01  0.50000500000E+01  0.51100000000E-03 0. -1.
         11   -1    0    0    0    0 -0.00000000000E+00 -0.00000000000E+00 -0.50000499739E+01  0.50000500000E+01  0.51100000000E-03 0.  1.
         50    1    1    2    0    0 -0.12252951521E-01 -0.16810347580E-01 -0.82024321545E-02  0.50000500000E+01  0.50000000000E+01 0.  1.
         50    1    1    2    0    0  0.12252951521E-01  0.16810347580E-01  0.82024321545E-02  0.50000500000E+01  0.50000000000E+01 0. -1.
</event>
<event>
 4    1  0.4967105E-021  0.5000050E+01  0.7818608E-02  0.2136455E+00
        -11   -1    0    0    0    0  0.00000000000E+00  0.00000000000E+00  0.50000499739E+01  0.50000500000E+01  0.51100000000E-03 0.  1.
         11   -1    0    0    0    0 -0.00000000000E+00 -0.00000000000E+00 -0.50000499739E+01  0.50000500000E+01  0.51100000000E-03 0. -1.
         50    1    1    2    0    0  0.13826733535E-01 -0.15303766551E-01 -0.86382098318E-02  0.50000500000E+01  0.50000000000E+01 0.  1.
         50    1    1    2    0    0 -0.13826733535E-01  0.15303766551E-01  0.86382098318E-02  0.50000500000E+01  0.50000000000E+01 0. -1.
</event>
<event>
 4    1  0.4967105E-021  0.5000050E+01  0.7818608E-02  0.2136455E+00
        -11   -1    0    0    0    0  0.00000000000E+00  0.00000000000E+00  0.50000499739E+01  0.50000500000E+01  0.51100000000E-03 0.  1.
         11   -1    0    0    0    0 -0.00000000000E+00 -0.00000000000E+00 -0.50000499739E+01  0.50000500000E+01  0.51100000000E-03 0. -1.
         50    1    1    2    0    0 -0.19177504790E-01  0.11234701046E-01 -0.24509798903E-02  0.50000500000E+01  0.50000000000E+01 0.  0.
         50    1    1    2    0    0  0.19177504790E-01 -0.11234701046E-01  0.24509798903E-02  0.50000500000E+01  0.50000000000E+01 0. -1.
</event>
<event>
 4    1  0.4967105E-021  0.5000050E+01  0.7818608E-02  0.2136455E+00
        -11   -1    0    0    0    0  0.00000000000E+00  0.00000000000E+00  0.50000499739E+01  0.50000500000E+01  0.51100000000E-03 0.  1.
         11   -1    0    0    0    0 -0.00000000000E+00 -0.00000000000E+00 -0.50000499739E+01  0.50000500000E+01  0.51100000000E-03 0. -1.
         50    1    1    2    0    0  0.35662708051E-02  0.17185620760E-01 -0.13854192565E-01  0.50000500000E+01  0.50000000000E+01 0.  0.
         50    1    1    2    0    0 -0.35662708051E-02 -0.17185620760E-01  0.13854192565E-01  0.50000500000E+01  0.50000000000E+01 0. -1.
</event>
<event>
 4    1  0.4967105E-021  0.5000050E+01  0.7818608E-02  0.2136455E+00
        -11   -1    0    0    0    0  0.00000000000E+00  0.00000000000E+00  0.50000499739E+01  0.50000500000E+01  0.51100000000E-03 0. -1.
         11   -1    0    0    0    0 -0.00000000000E+00 -0.00000000000E+00 -0.50000499739E+01  0.50000500000E+01  0.51100000000E-03 0.  1.
         50    1    1    2    0    0  0.41475155521E-02  0.17794168383E-01 -0.12890623968E-01  0.50000500000E+01  0.50000000000E+01 0. -1.
         50    1    1    2    0    0 -0.41475155521E-02 -0.17794168383E-01  0.12890623968E-01  0.50000500000E+01  0.50000000000E+01 0. -1.
</event>
<event>
 4    1  0.4967105E-021  0.5000050E+01  0.7818608E-02  0.2136455E+00
        -11   -1    0    0    0    0  0.00000000000E+00  0.00000000000E+00  0.50000499739E+01  0.50000500000E+01  0.51100000000E-03 0. -1.
         11   -1    0    0    0    0 -0.00000000000E+00 -0.00000000000E+00 -0.50000499739E+01  0.50000500000E+01  0.51100000000E-03 0.  1.
         50    1    1    2    0    0 -0.17186441922E-01  0.13362546823E-01  0.51059824195E-02  0.50000500000E+01  0.50000000000E+01 0. -1.
         50    1    1    2    0    0  0.17186441922E-01 -0.13362546823E-01 -0.51059824195E-02  0.50000500000E+01  0.50000000000E+01 0.  1.
</event>
<event>
 4    1  0.4967105E-021  0.5000050E+01  0.7818608E-02  0.2136455E+00
        -11   -1    0    0    0    0  0.00000000000E+00  0.00000000000E+00  0.50000499739E+01  0.50000500000E+01  0.51100000000E-03 0.  1.
         11   -1    0    0    0    0 -0.00000000000E+00 -0.00000000000E+00 -0.50000499739E+01  0.50000500000E+01  0.51100000000E-03 0. -1.
         50    1    1    2    0    0  0.20368133952E-01  0.42749782026E-02 -0.81771743701E-02  0.50000500000E+01  0.50000000000E+01 0. -1.
         50    1    1    2    0    0 -0.20368133952E-01 -0.42749782026E-02  0.81771743701E-02  0.50000500000E+01  0.50000000000E+01 0.  1.
</event>
<event>
 4    1  0.4967105E-021  0.5000050E+01  0.7818608E-02  0.2136455E+00
        -11   -1    0    0    0    0  0.00000000000E+00  0.00000000000E+00  0.50000499739E+01  0.50000500000E+01  0.51100000000E-03 0.  1.
         11   -1    0    0    0    0 -0.00000000000E+00 -0.00000000000E+00 -0.50000499739E+01  0.50000500000E+01  0.51100000000E-03 0. -1.
         50    1    1    2    0    0  0.12568188696E-01 -0.39289326572E-02  0.18072261095E-01  0.50000500000E+01  0.50000000000E+01 0. -1.
         50    1    1    2    0    0 -0.12568188696E-01  0.39289326572E-02 -0.18072261095E-01  0.50000500000E+01  0.50000000000E+01 0. -1.
</event>
<event>
 4    1  0.4967105E-021  0.5000050E+01  0.7818608E-02  0.2136455E+00
        -11   -1    0    0    0    0  0.00000000000E+00  0.00000000000E+00  0.50000499739E+01  0.50000500000E+01  0.51100000000E-03 0. -1.
         11   -1    0    0    0    0 -0.00000000000E+00 -0.00000000000E+00 -0.50000499739E+01  0.50000500000E+01  0.51100000000E-03 0.  1.
         50    1    1    2    0    0 -0.29310237701E-02  0.22042583557E-01  0.23528939182E-02  0.50000500000E+01  0.50000000000E+01 0.  1.
         50    1    1    2    0    0  0.29310237701E-02 -0.22042583557E-01 -0.23528939182E-02  0.50000500000E+01  0.50000000000E+01 0. -1.
</event>
<event>
 4    1  0.4967105E-021  0.5000050E+01  0.7818608E-02  0.2136455E+00
        -11   -1    0    0    0    0  0.00000000000E+00  0.00000000000E+00  0.50000499739E+01  0.50000500000E+01  0.51100000000E-03 0. -1.
         11   -1    0    0    0    0 -0.00000000000E+00 -0.00000000000E+00 -0.50000499739E+01  0.50000500000E+01  0.51100000000E-03 0.  1.
         50    1    1    2    0    0  0.55543913645E-02  0.70104954443E-02 -0.20494003762E-01  0.50000500000E+01  0.50000000000E+01 0.  1.
         50    1    1    2    0    0 -0.55543913645E-02 -0.70104954443E-02  0.20494003762E-01  0.50000500000E+01  0.50000000000E+01 0.  0.
</event>
<event>
 4    1  0.4967105E-021  0.5000050E+01  0.7818608E-02  0.2136455E+00
        -11   -1    0    0    0    0  0.00000000000E+00  0.00000000000E+00  0.50000499739E+01  0.50000500000E+01  0.51100000000E-03 0. -1.
         11   -1    0    0    0    0 -0.00000000000E+00 -0.00000000000E+00 -0.50000499739E+01  0.50000500000E+01  0.51100000000E-03 0.  1.
         50    1    1    2    0    0  0.12059337091E-01 -0.18062657302E-01 -0.53212122767E-02  0.50000500000E+01  0.50000000000E+01 0.  1.
         50    1    1    2    0    0 -0.12059337091E-01  0.18062657302E-01  0.53212122767E-02  0.50000500000E+01  0.50000000000E+01 0.  0.
</event>
<event>
 4    1  0.4967105E-021  0.5000050E+01  0.7818608E-02  0.2136455E+00
        -11   -1    0    0    0    0  0.00000000000E+00  0.00000000000E+00  0.50000499739E+01  0.50000500000E+01  0.51100000000E-03 0. -1.
         11   -1    0    0    0    0 -0.00000000000E+00 -0.00000000000E+00 -0.50000499739E+01  0.50000500000E+01  0.51100000000E-03 0.  1.
         50    1    1    2    0    0  0.13996223170E-01 -0.17083323906E-01  0.35026106371E-02  0.50000500000E+01  0.50000000000E+01 0.  0.
         50    1    1    2    0    0 -0.13996223170E-01  0.17083323906E-01 -0.35026106371E-02  0.50000500000E+01  0.50000000000E+01 0.  0.
</event>
<event>
 4    1  0.4967105E-021  0.5000050E+01  0.7818608E-02  0.2136455E+00
        -11   -1    0    0    0    0  0.00000000000E+00  0.00000000000E+00  0.50000499739E+01  0.50000500000E+01  0.51100000000E-03 0.  1.
         11   -1    0    0    0    0 -0.00000000000E+00 -0.00000000000E+00 -0.50000499739E+01  0.50000500000E+01  0.51100000000E-03 0. -1.
         50    1    1    2    0    0 -0.10278389368E-01 -0.12684830303E-01  0.15279145663E-01  0.50000500000E+01  0.50000000000E+01 0.  0.
         50    1    1    2    0    0  0.10278389368E-01  0.12684830303E-01 -0.15279145663E-01  0.50000500000E+01  0.50000000000E+01 0.  1.
</event>
<event>
 4    1  0.4967105E-021  0.5000050E+01  0.7818608E-02  0.2136455E+00
        -11   -1    0    0    0    0  0.00000000000E+00  0.00000000000E+00  0.50000499739E+01  0.50000500000E+01  0.51100000000E-03 0.  1.
         11   -1    0    0    0    0 -0.00000000000E+00 -0.00000000000E+00 -0.50000499739E+01  0.50000500000E+01  0.51100000000E-03 0. -1.
         50    1    1    2    0    0  0.15395832178E-01  0.71263873714E-02  0.14566586923E-01  0.50000500000E+01  0.50000000000E+01 0.  1.
         50    1    1    2    0    0 -0.15395832178E-01 -0.71263873714E-02 -0.14566586923E-01  0.50000500000E+01  0.50000000000E+01 0.  0.
</event>
<event>
 4    1  0.4967105E-021  0.5000050E+01  0.7818608E-02  0.2136455E+00
        -11   -1    0    0    0    0  0.00000000000E+00  0.00000000000E+00  0.50000499739E+01  0.50000500000E+01  0.51100000000E-03 0.  1.
         11   -1    0    0    0    0 -0.00000000000E+00 -0.00000000000E+00 -0.50000499739E+01  0.50000500000E+01  0.51100000000E-03 0. -1.
         50    1    1    2    0    0 -0.10303747149E-01  0.15597729147E-01  0.12269724534E-01  0.50000500000E+01  0.50000000000E+01 0.  1.
         50    1    1    2    0    0  0.10303747149E-01 -0.15597729147E-01 -0.12269724534E-01  0.50000500000E+01  0.50000000000E+01 0. -1.
</event>
<event>
 4    1  0.4967105E-021  0.5000050E+01  0.7818608E-02  0.2136455E+00
        -11   -1    0    0    0    0  0.00000000000E+00  0.00000000000E+00  0.50000499739E+01  0.50000500000E+01  0.51100000000E-03 0. -1.
         11   -1    0    0    0    0 -0.00000000000E+00 -0.00000000000E+00 -0.50000499739E+01  0.50000500000E+01  0.51100000000E-03 0.  1.
         50    1    1    2    0    0 -0.21469491480E-01  0.74539142288E-03 -0.62054675257E-02  0.50000500000E+01  0.50000000000E+01 0.  0.
         50    1    1    2    0    0  0.21469491480E-01 -0.74539142288E-03  0.62054675257E-02  0.50000500000E+01  0.50000000000E+01 0.  1.
</event>
<event>
 4    1  0.4967105E-021  0.5000050E+01  0.7818608E-02  0.2136455E+00
        -11   -1    0    0    0    0  0.00000000000E+00  0.00000000000E+00  0.50000499739E+01  0.50000500000E+01  0.51100000000E-03 0. -1.
         11   -1    0    0    0    0 -0.00000000000E+00 -0.00000000000E+00 -0.50000499739E+01  0.50000500000E+01  0.51100000000E-03 0.  1.
         50    1    1    2    0    0  0.52632796835E-03 -0.20000965878E-01  0.99843298640E-02  0.50000500000E+01  0.50000000000E+01 0.  0.
         50    1    1    2    0    0 -0.52632796835E-03  0.20000965878E-01 -0.99843298640E-02  0.50000500000E+01  0.50000000000E+01 0. -1.
</event>
<event>
 4    1  0.4967105E-021  0.5000050E+01  0.7818608E-02  0.2136455E+00
        -11   -1    0    0    0    0  0.00000000000E+00  0.00000000000E+00  0.50000499739E+01  0.50000500000E+01  0.51100000000E-03 0. -1.
         11   -1    0    0    0    0 -0.00000000000E+00 -0.00000000000E+00 -0.50000499739E+01  0.50000500000E+01  0.51100000000E-03 0.  1.
         50    1    1    2    0    0  0.22043645194E-01  0.30166075863E-02  0.22316552641E-02  0.50000500000E+01  0.50000000000E+01 0.  1.
         50    1    1    2    0    0 -0.22043645194E-01 -0.30166075863E-02 -0.22316552641E-02  0.50000500000E+01  0.50000000000E+01 0.  0.
</event>
<event>
 4    1  0.4967105E-021  0.5000050E+01  0.7818608E-02  0.2136455E+00
        -11   -1    0    0    0    0  0.00000000000E+00  0.00000000000E+00  0.50000499739E+01  0.50000500000E+01  0.51100000000E-03 0. -1.
         11   -1    0    0    0    0 -0.00000000000E+00 -0.00000000000E+00 -0.50000499739E+01  0.50000500000E+01  0.51100000000E-03 0.  1.
         50    1    1    2    0    0 -0.48364778094E-02  0.20259635947E-01 -0.81337650369E-02  0.50000500000E+01  0.50000000000E+01 0.  1.
         50    1    1    2    0    0  0.48364778094E-02 -0.20259635947E-01  0.81337650369E-02  0.50000500000E+01  0.50000000000E+01 0. -1.
</event>
<event>
 4    1  0.4967105E-021  0.5000050E+01  0.7818608E-02  0.2136455E+00
        -11   -1    0    0    0    0  0.00000000000E+00  0.00000000000E+00  0.50000499739E+01  0.50000500000E+01  0.51100000000E-03 0. -1.
         11   -1    0    0    0    0 -0.00000000000E+00 -0.00000000000E+00 -0.50000499739E+01  0.50000500000E+01  0.51100000000E-03 0.  1.
         50    1    1    2    0    0 -0.59388906430E-02 -0.15664899161E-02 -0.21500655508E-01  0.50000500000E+01  0.50000000000E+01 0.  1.
         50    1    1    2    0    0  0.59388906430E-02  0.15664899161E-02  0.21500655508E-01  0.50000500000E+01  0.50000000000E+01 0. -1.
</event>
<event>
 4    1  0.4967105E-021  0.5000050E+01  0.7818608E-02  0.2136455E+00
        -11   -1    0    0    0    0  0.00000000000E+00  0.00000000000E+00  0.50000499739E+01  0.50000500000E+01  0.51100000000E-03 0.  1.
         11   -1    0    0    0    0 -0.00000000000E+00 -0.00000000000E+00 -0.50000499739E+01  0.50000500000E+01  0.51100000000E-03 0. -1.
         50    1    1    2    0    0  0.37817791878E-03 -0.81631203096E-02 -0.20814008462E-01  0.50000500000E+01  0.50000000000E+01 0.  0.
         50    1    1    2    0    0 -0.37817791878E-03  0.81631203096E-02  0.20814008462E-01  0.50000500000E+01  0.50000000000E+01 0.  1.
</event>
<event>
 4    1  0.4967105E-021  0.5000050E+01  0.7818608E-02  0.2136455E+00
        -11   -1    0    0    0    0  0.00000000000E+00  0.00000000000E+00  0.50000499739E+01  0.50000500000E+01  0.51100000000E-03 0.  1.
         11   -1    0    0    0    0 -0.00000000000E+00 -0.00000000000E+00 -0.50000499739E+01  0.50000500000E+01  0.51100000000E-03 0. -1.
         50    1    1    2    0    0  0.56336279592E-03  0.19381209897E-01  0.11137945289E-01  0.50000500000E+01  0.50000000000E+01 0.  1.
         50    1    1    2    0    0 -0.56336279592E-03 -0.19381209897E-01 -0.11137945289E-01  0.50000500000E+01  0.50000000000E+01 0. -1.
</event>
<event>
 4    1  0.4967105E-021  0.5000050E+01  0.7818608E-02  0.2136455E+00
        -11   -1    0    0    0    0  0.00000000000E+00  0.00000000000E+00  0.50000499739E+01  0.50000500000E+01  0.51100000000E-03 0. -1.
         11   -1    0    0    0    0 -0.00000000000E+00 -0.00000000000E+00 -0.50000499739E+01  0.50000500000E+01  0.51100000000E-03 0.  1.
         50    1    1    2    0    0 -0.60625135177E-02  0.26621128888E-02 -0.21357939620E-01  0.50000500000E+01  0.50000000000E+01 0.  0.
         50    1    1    2    0    0  0.60625135177E-02 -0.26621128888E-02  0.21357939620E-01  0.50000500000E+01  0.50000000000E+01 0. -1.
</event>
<event>
 4    1  0.4967105E-021  0.5000050E+01  0.7818608E-02  0.2136455E+00
        -11   -1    0    0    0    0  0.00000000000E+00  0.00000000000E+00  0.50000499739E+01  0.50000500000E+01  0.51100000000E-03 0. -1.
         11   -1    0    0    0    0 -0.00000000000E+00 -0.00000000000E+00 -0.50000499739E+01  0.50000500000E+01  0.51100000000E-03 0.  1.
         50    1    1    2    0    0  0.14126006302E-01 -0.88470101088E-02 -0.14906000741E-01  0.50000500000E+01  0.50000000000E+01 0.  1.
         50    1    1    2    0    0 -0.14126006302E-01  0.88470101088E-02  0.14906000741E-01  0.50000500000E+01  0.50000000000E+01 0. -1.
</event>
<event>
 4    1  0.4967105E-021  0.5000050E+01  0.7818608E-02  0.2136455E+00
        -11   -1    0    0    0    0  0.00000000000E+00  0.00000000000E+00  0.50000499739E+01  0.50000500000E+01  0.51100000000E-03 0.  1.
         11   -1    0    0    0    0 -0.00000000000E+00 -0.00000000000E+00 -0.50000499739E+01  0.50000500000E+01  0.51100000000E-03 0. -1.
         50    1    1    2    0    0  0.36003491974E-02 -0.45849138334E-02 -0.21587462815E-01  0.50000500000E+01  0.50000000000E+01 0.  0.
         50    1    1    2    0    0 -0.36003491974E-02  0.45849138334E-02  0.21587462815E-01  0.50000500000E+01  0.50000000000E+01 0.  1.
</event>
<event>
 4    1  0.4967105E-021  0.5000050E+01  0.7818608E-02  0.2136455E+00
        -11   -1    0    0    0    0  0.00000000000E+00  0.00000000000E+00  0.50000499739E+01  0.50000500000E+01  0.51100000000E-03 0. -1.
         11   -1    0    0    0    0 -0.00000000000E+00 -0.00000000000E+00 -0.50000499739E+01  0.50000500000E+01  0.51100000000E-03 0.  1.
         50    1    1    2    0    0  0.10174687650E-01 -0.89939570103E-02 -0.17764767618E-01  0.50000500000E+01  0.50000000000E+01 0.  0.
         50    1    1    2    0    0 -0.10174687650E-01  0.89939570103E-02  0.17764767618E-01  0.50000500000E+01  0.50000000000E+01 0. -1.
</event>
<event>
 4    1  0.4967105E-021  0.5000050E+01  0.7818608E-02  0.2136455E+00
        -11   -1    0    0    0    0  0.00000000000E+00  0.00000000000E+00  0.50000499739E+01  0.50000500000E+01  0.51100000000E-03 0.  1.
         11   -1    0    0    0    0 -0.00000000000E+00 -0.00000000000E+00 -0.50000499739E+01  0.50000500000E+01  0.51100000000E-03 0. -1.
         50    1    1    2    0    0 -0.21600812794E-01 -0.47429806634E-02  0.33032591550E-02  0.50000500000E+01  0.50000000000E+01 0. -1.
         50    1    1    2    0    0  0.21600812794E-01  0.47429806634E-02 -0.33032591551E-02  0.50000500000E+01  0.50000000000E+01 0.  0.
</event>
<event>
 4    1  0.1752229E-020  0.5000050E+01  0.7818608E-02  0.2136455E+00
        -11   -1    0    0    0    0  0.00000000000E+00  0.00000000000E+00  0.50000499739E+01  0.50000500000E+01  0.51100000000E-03 0. -1.
         11   -1    0    0    0    0 -0.00000000000E+00 -0.00000000000E+00 -0.50000499739E+01  0.50000500000E+01  0.51100000000E-03 0.  1.
         50    1    1    2    0    0 -0.42510089095E-02  0.12272784823E-02  0.21918604216E-01  0.50000500000E+01  0.50000000000E+01 0. -1.
         50    1    1    2    0    0  0.42510089095E-02 -0.12272784823E-02 -0.21918604216E-01  0.50000500000E+01  0.50000000000E+01 0. -1.
</event>
<event>
 4    1  0.4967105E-021  0.5000050E+01  0.7818608E-02  0.2136455E+00
        -11   -1    0    0    0    0  0.00000000000E+00  0.00000000000E+00  0.50000499739E+01  0.50000500000E+01  0.51100000000E-03 0.  1.
         11   -1    0    0    0    0 -0.00000000000E+00 -0.00000000000E+00 -0.50000499739E+01  0.50000500000E+01  0.51100000000E-03 0. -1.
         50    1    1    2    0    0  0.18476717314E-01 -0.42507480196E-03  0.12587006344E-01  0.50000500000E+01  0.50000000000E+01 0.  0.
         50    1    1    2    0    0 -0.18476717314E-01  0.42507480196E-03 -0.12587006344E-01  0.50000500000E+01  0.50000000000E+01 0.  0.
</event>
<event>
 4    1  0.4967105E-021  0.5000050E+01  0.7818608E-02  0.2136455E+00
        -11   -1    0    0    0    0  0.00000000000E+00  0.00000000000E+00  0.50000499739E+01  0.50000500000E+01  0.51100000000E-03 0.  1.
         11   -1    0    0    0    0 -0.00000000000E+00 -0.00000000000E+00 -0.50000499739E+01  0.50000500000E+01  0.51100000000E-03 0. -1.
         50    1    1    2    0    0  0.51834129288E-02  0.20901243476E-01  0.60226864086E-02  0.50000500000E+01  0.50000000000E+01 0. -1.
         50    1    1    2    0    0 -0.51834129288E-02 -0.20901243476E-01 -0.60226864086E-02  0.50000500000E+01  0.50000000000E+01 0.  0.
</event>
<event>
 4    1  0.4967105E-021  0.5000050E+01  0.7818608E-02  0.2136455E+00
        -11   -1    0    0    0    0  0.00000000000E+00  0.00000000000E+00  0.50000499739E+01  0.50000500000E+01  0.51100000000E-03 0. -1.
         11   -1    0    0    0    0 -0.00000000000E+00 -0.00000000000E+00 -0.50000499739E+01  0.50000500000E+01  0.51100000000E-03 0.  1.
         50    1    1    2    0    0 -0.12966303325E-01  0.15652642494E-01  0.93205290101E-02  0.50000500000E+01  0.50000000000E+01 0. -1.
         50    1    1    2    0    0  0.12966303325E-01 -0.15652642494E-01 -0.93205290101E-02  0.50000500000E+01  0.50000000000E+01 0.  1.
</event>
<event>
 4    1  0.4967105E-021  0.5000050E+01  0.7818608E-02  0.2136455E+00
        -11   -1    0    0    0    0  0.00000000000E+00  0.00000000000E+00  0.50000499739E+01  0.50000500000E+01  0.51100000000E-03 0.  1.
         11   -1    0    0    0    0 -0.00000000000E+00 -0.00000000000E+00 -0.50000499739E+01  0.50000500000E+01  0.51100000000E-03 0. -1.
         50    1    1    2    0    0 -0.66286594077E-02  0.20223468230E-01 -0.68611010209E-02  0.50000500000E+01  0.50000000000E+01 0.  0.
         50    1    1    2    0    0  0.66286594077E-02 -0.20223468230E-01  0.68611010209E-02  0.50000500000E+01  0.50000000000E+01 0. -1.
</event>
<event>
 4    1  0.4967105E-021  0.5000050E+01  0.7818608E-02  0.2136455E+00
        -11   -1    0    0    0    0  0.00000000000E+00  0.00000000000E+00  0.50000499739E+01  0.50000500000E+01  0.51100000000E-03 0. -1.
         11   -1    0    0    0    0 -0.00000000000E+00 -0.00000000000E+00 -0.50000499739E+01  0.50000500000E+01  0.51100000000E-03 0.  1.
         50    1    1    2    0    0 -0.29058447571E-02 -0.18139516309E-01 -0.12748196512E-01  0.50000500000E+01  0.50000000000E+01 0. -1.
         50    1    1    2    0    0  0.29058447571E-02  0.18139516309E-01  0.12748196512E-01  0.50000500000E+01  0.50000000000E+01 0.  1.
</event>
<event>
 4    1  0.4967105E-021  0.5000050E+01  0.7818608E-02  0.2136455E+00
        -11   -1    0    0    0    0  0.00000000000E+00  0.00000000000E+00  0.50000499739E+01  0.50000500000E+01  0.51100000000E-03 0. -1.
         11   -1    0    0    0    0 -0.00000000000E+00 -0.00000000000E+00 -0.50000499739E+01  0.50000500000E+01  0.51100000000E-03 0.  1.
         50    1    1    2    0    0  0.20730250115E-01  0.71602807272E-02 -0.43577069757E-02  0.50000500000E+01  0.50000000000E+01 0.  0.
         50    1    1    2    0    0 -0.20730250115E-01 -0.71602807272E-02  0.43577069757E-02  0.50000500000E+01  0.50000000000E+01 0. -1.
</event>
<event>
 4    1  0.4967105E-021  0.5000050E+01  0.7818608E-02  0.2136455E+00
        -11   -1    0    0    0    0  0.00000000000E+00  0.00000000000E+00  0.50000499739E+01  0.50000500000E+01  0.51100000000E-03 0.  1.
         11   -1    0    0    0    0 -0.00000000000E+00 -0.00000000000E+00 -0.50000499739E+01  0.50000500000E+01  0.51100000000E-03 0. -1.
         50    1    1    2    0    0 -0.18930823706E-01 -0.11899289047E-01  0.18257602594E-03  0.50000500000E+01  0.50000000000E+01 0.  0.
         50    1    1    2    0    0  0.18930823706E-01  0.11899289047E-01 -0.18257602594E-03  0.50000500000E+01  0.50000000000E+01 0. -1.
</event>
<event>
 4    1  0.4967105E-021  0.5000050E+01  0.7818608E-02  0.2136455E+00
        -11   -1    0    0    0    0  0.00000000000E+00  0.00000000000E+00  0.50000499739E+01  0.50000500000E+01  0.51100000000E-03 0. -1.
         11   -1    0    0    0    0 -0.00000000000E+00 -0.00000000000E+00 -0.50000499739E+01  0.50000500000E+01  0.51100000000E-03 0.  1.
         50    1    1    2    0    0  0.19464618618E-01 -0.87919661327E-02  0.66206082473E-02  0.50000500000E+01  0.50000000000E+01 0. -1.
         50    1    1    2    0    0 -0.19464618618E-01  0.87919661327E-02 -0.66206082473E-02  0.50000500000E+01  0.50000000000E+01 0. -1.
</event>
<event>
 4    1  0.4967105E-021  0.5000050E+01  0.7818608E-02  0.2136455E+00
        -11   -1    0    0    0    0  0.00000000000E+00  0.00000000000E+00  0.50000499739E+01  0.50000500000E+01  0.51100000000E-03 0. -1.
         11   -1    0    0    0    0 -0.00000000000E+00 -0.00000000000E+00 -0.50000499739E+01  0.50000500000E+01  0.51100000000E-03 0.  1.
         50    1    1    2    0    0  0.46046779682E-02 -0.93960082979E-02 -0.19761438937E-01  0.50000500000E+01  0.50000000000E+01 0. -1.
         50    1    1    2    0    0 -0.46046779682E-02  0.93960082979E-02  0.19761438937E-01  0.50000500000E+01  0.50000000000E+01 0.  0.
</event>
<event>
 4    1  0.4967105E-021  0.5000050E+01  0.7818608E-02  0.2136455E+00
        -11   -1    0    0    0    0  0.00000000000E+00  0.00000000000E+00  0.50000499739E+01  0.50000500000E+01  0.51100000000E-03 0. -1.
         11   -1    0    0    0    0 -0.00000000000E+00 -0.00000000000E+00 -0.50000499739E+01  0.50000500000E+01  0.51100000000E-03 0.  1.
         50    1    1    2    0    0  0.17594503653E-01 -0.13475767650E-01 -0.29731510965E-02  0.50000500000E+01  0.50000000000E+01 0.  1.
         50    1    1    2    0    0 -0.17594503653E-01  0.13475767650E-01  0.29731510965E-02  0.50000500000E+01  0.50000000000E+01 0.  0.
</event>
<event>
 4    1  0.4967105E-021  0.5000050E+01  0.7818608E-02  0.2136455E+00
        -11   -1    0    0    0    0  0.00000000000E+00  0.00000000000E+00  0.50000499739E+01  0.50000500000E+01  0.51100000000E-03 0. -1.
         11   -1    0    0    0    0 -0.00000000000E+00 -0.00000000000E+00 -0.50000499739E+01  0.50000500000E+01  0.51100000000E-03 0.  1.
         50    1    1    2    0    0 -0.51678955575E-03  0.19887673843E-01  0.10208616834E-01  0.50000500000E+01  0.50000000000E+01 0.  0.
         50    1    1    2    0    0  0.51678955575E-03 -0.19887673843E-01 -0.10208616834E-01  0.50000500000E+01  0.50000000000E+01 0.  0.
</event>
<event>
 4    1  0.4967105E-021  0.5000050E+01  0.7818608E-02  0.2136455E+00
        -11   -1    0    0    0    0  0.00000000000E+00  0.00000000000E+00  0.50000499739E+01  0.50000500000E+01  0.51100000000E-03 0. -1.
         11   -1    0    0    0    0 -0.00000000000E+00 -0.00000000000E+00 -0.50000499739E+01  0.50000500000E+01  0.51100000000E-03 0.  1.
         50    1    1    2    0    0 -0.69996241827E-02 -0.20760002983E-01  0.44754929817E-02  0.50000500000E+01  0.50000000000E+01 0.  0.
         50    1    1    2    0    0  0.69996241827E-02  0.20760002983E-01 -0.44754929817E-02  0.50000500000E+01  0.50000000000E+01 0. -1.
</event>
<event>
 4    1  0.4967105E-021  0.5000050E+01  0.7818608E-02  0.2136455E+00
        -11   -1    0    0    0    0  0.00000000000E+00  0.00000000000E+00  0.50000499739E+01  0.50000500000E+01  0.51100000000E-03 0.  1.
         11   -1    0    0    0    0 -0.00000000000E+00 -0.00000000000E+00 -0.50000499739E+01  0.50000500000E+01  0.51100000000E-03 0. -1.
         50    1    1    2    0    0  0.15835375931E-01  0.15636676981E-01  0.21766263162E-02  0.50000500000E+01  0.50000000000E+01 0. -1.
         50    1    1    2    0    0 -0.15835375931E-01 -0.15636676981E-01 -0.21766263162E-02  0.50000500000E+01  0.50000000000E+01 0.  1.
</event>
<event>
 4    1  0.4967105E-021  0.5000050E+01  0.7818608E-02  0.2136455E+00
        -11   -1    0    0    0    0  0.00000000000E+00  0.00000000000E+00  0.50000499739E+01  0.50000500000E+01  0.51100000000E-03 0. -1.
         11   -1    0    0    0    0 -0.00000000000E+00 -0.00000000000E+00 -0.50000499739E+01  0.50000500000E+01  0.51100000000E-03 0.  1.
         50    1    1    2    0    0  0.11656146666E-01  0.25093320866E-02  0.18916659255E-01  0.50000500000E+01  0.50000000000E+01 0. -1.
         50    1    1    2    0    0 -0.11656146666E-01 -0.25093320866E-02 -0.18916659255E-01  0.50000500000E+01  0.50000000000E+01 0.  0.
</event>
<event>
 4    1  0.4967105E-021  0.5000050E+01  0.7818608E-02  0.2136455E+00
        -11   -1    0    0    0    0  0.00000000000E+00  0.00000000000E+00  0.50000499739E+01  0.50000500000E+01  0.51100000000E-03 0. -1.
         11   -1    0    0    0    0 -0.00000000000E+00 -0.00000000000E+00 -0.50000499739E+01  0.50000500000E+01  0.51100000000E-03 0.  1.
         50    1    1    2    0    0  0.56227934862E-02  0.21213272298E-01  0.42876300948E-02  0.50000500000E+01  0.50000000000E+01 0.  1.
         50    1    1    2    0    0 -0.56227934862E-02 -0.21213272298E-01 -0.42876300948E-02  0.50000500000E+01  0.50000000000E+01 0. -1.
</event>
<event>
 4    1  0.4967105E-021  0.5000050E+01  0.7818608E-02  0.2136455E+00
        -11   -1    0    0    0    0  0.00000000000E+00  0.00000000000E+00  0.50000499739E+01  0.50000500000E+01  0.51100000000E-03 0. -1.
         11   -1    0    0    0    0 -0.00000000000E+00 -0.00000000000E+00 -0.50000499739E+01  0.50000500000E+01  0.51100000000E-03 0.  1.
         50    1    1    2    0    0 -0.14852518445E-01  0.14867438064E-01 -0.76396649952E-02  0.50000500000E+01  0.50000000000E+01 0.  1.
         50    1    1    2    0    0  0.14852518445E-01 -0.14867438064E-01  0.76396649952E-02  0.50000500000E+01  0.50000000000E+01 0. -1.
</event>
<event>
 4    1  0.4967105E-021  0.5000050E+01  0.7818608E-02  0.2136455E+00
        -11   -1    0    0    0    0  0.00000000000E+00  0.00000000000E+00  0.50000499739E+01  0.50000500000E+01  0.51100000000E-03 0.  1.
         11   -1    0    0    0    0 -0.00000000000E+00 -0.00000000000E+00 -0.50000499739E+01  0.50000500000E+01  0.51100000000E-03 0. -1.
         50    1    1    2    0    0  0.21892067258E-01  0.37212652056E-02 -0.26252764489E-02  0.50000500000E+01  0.50000000000E+01 0.  1.
         50    1    1    2    0    0 -0.21892067258E-01 -0.37212652056E-02  0.26252764489E-02  0.50000500000E+01  0.50000000000E+01 0.  0.
</event>
<event>
 4    1  0.4967105E-021  0.5000050E+01  0.7818608E-02  0.2136455E+00
        -11   -1    0    0    0    0  0.00000000000E+00  0.00000000000E+00  0.50000499739E+01  0.50000500000E+01  0.51100000000E-03 0.  1.
         11   -1    0    0    0    0 -0.00000000000E+00 -0.00000000000E+00 -0.50000499739E+01  0.50000500000E+01  0.51100000000E-03 0. -1.
         50    1    1    2    0    0 -0.13500330770E-01 -0.17428011858E-01 -0.37427225076E-02  0.50000500000E+01  0.50000000000E+01 0.  1.
         50    1    1    2    0    0  0.13500330770E-01  0.17428011858E-01  0.37427225077E-02  0.50000500000E+01  0.50000000000E+01 0.  0.
</event>
<event>
 4    1  0.4967105E-021  0.5000050E+01  0.7818608E-02  0.2136455E+00
        -11   -1    0    0    0    0  0.00000000000E+00  0.00000000000E+00  0.50000499739E+01  0.50000500000E+01  0.51100000000E-03 0.  1.
         11   -1    0    0    0    0 -0.00000000000E+00 -0.00000000000E+00 -0.50000499739E+01  0.50000500000E+01  0.51100000000E-03 0. -1.
         50    1    1    2    0    0  0.20761245231E-01 -0.79455225588E-02 -0.24169956004E-02  0.50000500000E+01  0.50000000000E+01 0. -1.
         50    1    1    2    0    0 -0.20761245231E-01  0.79455225588E-02  0.24169956004E-02  0.50000500000E+01  0.50000000000E+01 0.  1.
</event>
<event>
 4    1  0.4967105E-021  0.5000050E+01  0.7818608E-02  0.2136455E+00
        -11   -1    0    0    0    0  0.00000000000E+00  0.00000000000E+00  0.50000499739E+01  0.50000500000E+01  0.51100000000E-03 0.  1.
         11   -1    0    0    0    0 -0.00000000000E+00 -0.00000000000E+00 -0.50000499739E+01  0.50000500000E+01  0.51100000000E-03 0. -1.
         50    1    1    2    0    0  0.90013057556E-02  0.63142363443E-02  0.19470732243E-01  0.50000500000E+01  0.50000000000E+01 0.  0.
         50    1    1    2    0    0 -0.90013057556E-02 -0.63142363443E-02 -0.19470732243E-01  0.50000500000E+01  0.50000000000E+01 0. -1.
</event>
<event>
 4    1  0.4967105E-021  0.5000050E+01  0.7818608E-02  0.2136455E+00
        -11   -1    0    0    0    0  0.00000000000E+00  0.00000000000E+00  0.50000499739E+01  0.50000500000E+01  0.51100000000E-03 0. -1.
         11   -1    0    0    0    0 -0.00000000000E+00 -0.00000000000E+00 -0.50000499739E+01  0.50000500000E+01  0.51100000000E-03 0.  1.
         50    1    1    2    0    0  0.20402855845E-01  0.16090196472E-02 -0.90076095133E-02  0.50000500000E+01  0.50000000000E+01 0.  0.
         50    1    1    2    0    0 -0.20402855845E-01 -0.16090196472E-02  0.90076095133E-02  0.50000500000E+01  0.50000000000E+01 0.  1.
</event>
<event>
 4    1  0.4967105E-021  0.5000050E+01  0.7818608E-02  0.2136455E+00
        -11   -1    0    0    0    0  0.00000000000E+00  0.00000000000E+00  0.50000499739E+01  0.50000500000E+01  0.51100000000E-03 0.  1.
         11   -1    0    0    0    0 -0.00000000000E+00 -0.00000000000E+00 -0.50000499739E+01  0.50000500000E+01  0.51100000000E-03 0. -1.
         50    1    1    2    0    0 -0.17192550372E-01 -0.77730804657E-02 -0.11999913823E-01  0.50000500000E+01  0.50000000000E+01 0.  0.
         50    1    1    2    0    0  0.17192550372E-01  0.77730804657E-02  0.11999913823E-01  0.50000500000E+01  0.50000000000E+01 0.  0.
</event>
<event>
 4    1  0.4967105E-021  0.5000050E+01  0.7818608E-02  0.2136455E+00
        -11   -1    0    0    0    0  0.00000000000E+00  0.00000000000E+00  0.50000499739E+01  0.50000500000E+01  0.51100000000E-03 0. -1.
         11   -1    0    0    0    0 -0.00000000000E+00 -0.00000000000E+00 -0.50000499739E+01  0.50000500000E+01  0.51100000000E-03 0.  1.
         50    1    1    2    0    0  0.10738672476E-01  0.15247087093E-01  0.12337331504E-01  0.50000500000E+01  0.50000000000E+01 0.  1.
         50    1    1    2    0    0 -0.10738672476E-01 -0.15247087093E-01 -0.12337331504E-01  0.50000500000E+01  0.50000000000E+01 0.  1.
</event>
<event>
 4    1  0.4967105E-021  0.5000050E+01  0.7818608E-02  0.2136455E+00
        -11   -1    0    0    0    0  0.00000000000E+00  0.00000000000E+00  0.50000499739E+01  0.50000500000E+01  0.51100000000E-03 0.  1.
         11   -1    0    0    0    0 -0.00000000000E+00 -0.00000000000E+00 -0.50000499739E+01  0.50000500000E+01  0.51100000000E-03 0. -1.
         50    1    1    2    0    0 -0.96585864253E-02  0.17634254973E-01  0.97850528775E-02  0.50000500000E+01  0.50000000000E+01 0.  0.
         50    1    1    2    0    0  0.96585864253E-02 -0.17634254973E-01 -0.97850528775E-02  0.50000500000E+01  0.50000000000E+01 0.  0.
</event>
<event>
 4    1  0.4967105E-021  0.5000050E+01  0.7818608E-02  0.2136455E+00
        -11   -1    0    0    0    0  0.00000000000E+00  0.00000000000E+00  0.50000499739E+01  0.50000500000E+01  0.51100000000E-03 0.  1.
         11   -1    0    0    0    0 -0.00000000000E+00 -0.00000000000E+00 -0.50000499739E+01  0.50000500000E+01  0.51100000000E-03 0. -1.
         50    1    1    2    0    0 -0.77123830097E-02 -0.15214824892E-01 -0.14457895829E-01  0.50000500000E+01  0.50000000000E+01 0. -1.
         50    1    1    2    0    0  0.77123830097E-02  0.15214824892E-01  0.14457895829E-01  0.50000500000E+01  0.50000000000E+01 0. -1.
</event>
<event>
 4    1  0.4967105E-021  0.5000050E+01  0.7818608E-02  0.2136455E+00
        -11   -1    0    0    0    0  0.00000000000E+00  0.00000000000E+00  0.50000499739E+01  0.50000500000E+01  0.51100000000E-03 0.  1.
         11   -1    0    0    0    0 -0.00000000000E+00 -0.00000000000E+00 -0.50000499739E+01  0.50000500000E+01  0.51100000000E-03 0. -1.
         50    1    1    2    0    0  0.37111957556E-02  0.38121568530E-02 -0.21718586192E-01  0.50000500000E+01  0.50000000000E+01 0. -1.
         50    1    1    2    0    0 -0.37111957556E-02 -0.38121568530E-02  0.21718586192E-01  0.50000500000E+01  0.50000000000E+01 0.  0.
</event>
<event>
 4    1  0.4967105E-021  0.5000050E+01  0.7818608E-02  0.2136455E+00
        -11   -1    0    0    0    0  0.00000000000E+00  0.00000000000E+00  0.50000499739E+01  0.50000500000E+01  0.51100000000E-03 0. -1.
         11   -1    0    0    0    0 -0.00000000000E+00 -0.00000000000E+00 -0.50000499739E+01  0.50000500000E+01  0.51100000000E-03 0.  1.
         50    1    1    2    0    0 -0.98740484257E-02  0.16546191584E-02  0.19994196736E-01  0.50000500000E+01  0.50000000000E+01 0. -1.
         50    1    1    2    0    0  0.98740484257E-02 -0.16546191584E-02 -0.19994196736E-01  0.50000500000E+01  0.50000000000E+01 0.  1.
</event>
<event>
 4    1  0.4967105E-021  0.5000050E+01  0.7818608E-02  0.2136455E+00
        -11   -1    0    0    0    0  0.00000000000E+00  0.00000000000E+00  0.50000499739E+01  0.50000500000E+01  0.51100000000E-03 0.  1.
         11   -1    0    0    0    0 -0.00000000000E+00 -0.00000000000E+00 -0.50000499739E+01  0.50000500000E+01  0.51100000000E-03 0. -1.
         50    1    1    2    0    0 -0.15570731106E-01 -0.12009947209E-01  0.10644998866E-01  0.50000500000E+01  0.50000000000E+01 0. -1.
         50    1    1    2    0    0  0.15570731106E-01  0.12009947209E-01 -0.10644998866E-01  0.50000500000E+01  0.50000000000E+01 0.  0.
</event>
<event>
 4    1  0.4967105E-021  0.5000050E+01  0.7818608E-02  0.2136455E+00
        -11   -1    0    0    0    0  0.00000000000E+00  0.00000000000E+00  0.50000499739E+01  0.50000500000E+01  0.51100000000E-03 0.  1.
         11   -1    0    0    0    0 -0.00000000000E+00 -0.00000000000E+00 -0.50000499739E+01  0.50000500000E+01  0.51100000000E-03 0. -1.
         50    1    1    2    0    0  0.91756973921E-02 -0.11996318730E-01 -0.16489312123E-01  0.50000500000E+01  0.50000000000E+01 0.  0.
         50    1    1    2    0    0 -0.91756973921E-02  0.11996318730E-01  0.16489312123E-01  0.50000500000E+01  0.50000000000E+01 0.  1.
</event>
<event>
 4    1  0.4967105E-021  0.5000050E+01  0.7818608E-02  0.2136455E+00
        -11   -1    0    0    0    0  0.00000000000E+00  0.00000000000E+00  0.50000499739E+01  0.50000500000E+01  0.51100000000E-03 0.  1.
         11   -1    0    0    0    0 -0.00000000000E+00 -0.00000000000E+00 -0.50000499739E+01  0.50000500000E+01  0.51100000000E-03 0. -1.
         50    1    1    2    0    0  0.21286390250E-01  0.61862847925E-02  0.29363192211E-02  0.50000500000E+01  0.50000000000E+01 0. -1.
         50    1    1    2    0    0 -0.21286390250E-01 -0.61862847925E-02 -0.29363192211E-02  0.50000500000E+01  0.50000000000E+01 0.  0.
</event>
<event>
 4    1  0.4967105E-021  0.5000050E+01  0.7818608E-02  0.2136455E+00
        -11   -1    0    0    0    0  0.00000000000E+00  0.00000000000E+00  0.50000499739E+01  0.50000500000E+01  0.51100000000E-03 0. -1.
         11   -1    0    0    0    0 -0.00000000000E+00 -0.00000000000E+00 -0.50000499739E+01  0.50000500000E+01  0.51100000000E-03 0.  1.
         50    1    1    2    0    0  0.16579188716E-01  0.14070824304E-01 -0.52100772470E-02  0.50000500000E+01  0.50000000000E+01 0. -1.
         50    1    1    2    0    0 -0.16579188716E-01 -0.14070824304E-01  0.52100772470E-02  0.50000500000E+01  0.50000000000E+01 0.  0.
</event>
<event>
 4    1  0.4967105E-021  0.5000050E+01  0.7818608E-02  0.2136455E+00
        -11   -1    0    0    0    0  0.00000000000E+00  0.00000000000E+00  0.50000499739E+01  0.50000500000E+01  0.51100000000E-03 0.  1.
         11   -1    0    0    0    0 -0.00000000000E+00 -0.00000000000E+00 -0.50000499739E+01  0.50000500000E+01  0.51100000000E-03 0. -1.
         50    1    1    2    0    0 -0.35647202520E-02 -0.95694932425E-02 -0.19892713958E-01  0.50000500000E+01  0.50000000000E+01 0. -1.
         50    1    1    2    0    0  0.35647202520E-02  0.95694932425E-02  0.19892713958E-01  0.50000500000E+01  0.50000000000E+01 0.  0.
</event>
<event>
 4    1  0.4967105E-021  0.5000050E+01  0.7818608E-02  0.2136455E+00
        -11   -1    0    0    0    0  0.00000000000E+00  0.00000000000E+00  0.50000499739E+01  0.50000500000E+01  0.51100000000E-03 0. -1.
         11   -1    0    0    0    0 -0.00000000000E+00 -0.00000000000E+00 -0.50000499739E+01  0.50000500000E+01  0.51100000000E-03 0.  1.
         50    1    1    2    0    0 -0.92205242070E-03 -0.40233977964E-02 -0.21976455344E-01  0.50000500000E+01  0.50000000000E+01 0.  1.
         50    1    1    2    0    0  0.92205242070E-03  0.40233977964E-02  0.21976455344E-01  0.50000500000E+01  0.50000000000E+01 0.  0.
</event>
<event>
 4    1  0.4967105E-021  0.5000050E+01  0.7818608E-02  0.2136455E+00
        -11   -1    0    0    0    0  0.00000000000E+00  0.00000000000E+00  0.50000499739E+01  0.50000500000E+01  0.51100000000E-03 0. -1.
         11   -1    0    0    0    0 -0.00000000000E+00 -0.00000000000E+00 -0.50000499739E+01  0.50000500000E+01  0.51100000000E-03 0.  1.
         50    1    1    2    0    0 -0.17325368847E-01  0.11515418242E-01 -0.81993436950E-02  0.50000500000E+01  0.50000000000E+01 0.  1.
         50    1    1    2    0    0  0.17325368847E-01 -0.11515418242E-01  0.81993436950E-02  0.50000500000E+01  0.50000000000E+01 0. -1.
</event>
<event>
 4    1  0.4967105E-021  0.5000050E+01  0.7818608E-02  0.2136455E+00
        -11   -1    0    0    0    0  0.00000000000E+00  0.00000000000E+00  0.50000499739E+01  0.50000500000E+01  0.51100000000E-03 0. -1.
         11   -1    0    0    0    0 -0.00000000000E+00 -0.00000000000E+00 -0.50000499739E+01  0.50000500000E+01  0.51100000000E-03 0.  1.
         50    1    1    2    0    0 -0.22246967050E-01  0.19316029970E-02 -0.11592527561E-02  0.50000500000E+01  0.50000000000E+01 0.  1.
         50    1    1    2    0    0  0.22246967050E-01 -0.19316029970E-02  0.11592527561E-02  0.50000500000E+01  0.50000000000E+01 0.  0.
</event>
<event>
 4    1  0.4967105E-021  0.5000050E+01  0.7818608E-02  0.2136455E+00
        -11   -1    0    0    0    0  0.00000000000E+00  0.00000000000E+00  0.50000499739E+01  0.50000500000E+01  0.51100000000E-03 0.  1.
         11   -1    0    0    0    0 -0.00000000000E+00 -0.00000000000E+00 -0.50000499739E+01  0.50000500000E+01  0.51100000000E-03 0. -1.
         50    1    1    2    0    0 -0.12463084804E-01  0.55718667365E-02 -0.17709554433E-01  0.50000500000E+01  0.50000000000E+01 0.  0.
         50    1    1    2    0    0  0.12463084804E-01 -0.55718667365E-02  0.17709554433E-01  0.50000500000E+01  0.50000000000E+01 0.  1.
</event>
<event>
 4    1  0.4967105E-021  0.5000050E+01  0.7818608E-02  0.2136455E+00
        -11   -1    0    0    0    0  0.00000000000E+00  0.00000000000E+00  0.50000499739E+01  0.50000500000E+01  0.51100000000E-03 0. -1.
         11   -1    0    0    0    0 -0.00000000000E+00 -0.00000000000E+00 -0.50000499739E+01  0.50000500000E+01  0.51100000000E-03 0.  1.
         50    1    1    2    0    0  0.17946968060E-01  0.44767817087E-02  0.12564523986E-01  0.50000500000E+01  0.50000000000E+01 0. -1.
         50    1    1    2    0    0 -0.17946968060E-01 -0.44767817087E-02 -0.12564523986E-01  0.50000500000E+01  0.50000000000E+01 0.  1.
</event>
<event>
 4    1  0.4967105E-021  0.5000050E+01  0.7818608E-02  0.2136455E+00
        -11   -1    0    0    0    0  0.00000000000E+00  0.00000000000E+00  0.50000499739E+01  0.50000500000E+01  0.51100000000E-03 0.  1.
         11   -1    0    0    0    0 -0.00000000000E+00 -0.00000000000E+00 -0.50000499739E+01  0.50000500000E+01  0.51100000000E-03 0. -1.
         50    1    1    2    0    0  0.18055086364E-01 -0.12959976761E-01  0.24607638547E-02  0.50000500000E+01  0.50000000000E+01 0.  1.
         50    1    1    2    0    0 -0.18055086364E-01  0.12959976761E-01 -0.24607638547E-02  0.50000500000E+01  0.50000000000E+01 0. -1.
</event>
<event>
 4    1  0.4967105E-021  0.5000050E+01  0.7818608E-02  0.2136455E+00
        -11   -1    0    0    0    0  0.00000000000E+00  0.00000000000E+00  0.50000499739E+01  0.50000500000E+01  0.51100000000E-03 0.  1.
         11   -1    0    0    0    0 -0.00000000000E+00 -0.00000000000E+00 -0.50000499739E+01  0.50000500000E+01  0.51100000000E-03 0. -1.
         50    1    1    2    0    0  0.16334179880E-01 -0.15489512563E-02 -0.15192031386E-01  0.50000500000E+01  0.50000000000E+01 0.  0.
         50    1    1    2    0    0 -0.16334179880E-01  0.15489512563E-02  0.15192031386E-01  0.50000500000E+01  0.50000000000E+01 0.  0.
</event>
<event>
 4    1  0.4967105E-021  0.5000050E+01  0.7818608E-02  0.2136455E+00
        -11   -1    0    0    0    0  0.00000000000E+00  0.00000000000E+00  0.50000499739E+01  0.50000500000E+01  0.51100000000E-03 0. -1.
         11   -1    0    0    0    0 -0.00000000000E+00 -0.00000000000E+00 -0.50000499739E+01  0.50000500000E+01  0.51100000000E-03 0.  1.
         50    1    1    2    0    0  0.79062937357E-02  0.18501189563E-01  0.97569977003E-02  0.50000500000E+01  0.50000000000E+01 0.  1.
         50    1    1    2    0    0 -0.79062937357E-02 -0.18501189563E-01 -0.97569977003E-02  0.50000500000E+01  0.50000000000E+01 0.  1.
</event>
<event>
 4    1  0.4967105E-021  0.5000050E+01  0.7818608E-02  0.2136455E+00
        -11   -1    0    0    0    0  0.00000000000E+00  0.00000000000E+00  0.50000499739E+01  0.50000500000E+01  0.51100000000E-03 0. -1.
         11   -1    0    0    0    0 -0.00000000000E+00 -0.00000000000E+00 -0.50000499739E+01  0.50000500000E+01  0.51100000000E-03 0.  1.
         50    1    1    2    0    0  0.53959597486E-02  0.36885970527E-02  0.21384114903E-01  0.50000500000E+01  0.50000000000E+01 0.  0.
         50    1    1    2    0    0 -0.53959597486E-02 -0.36885970527E-02 -0.21384114903E-01  0.50000500000E+01  0.50000000000E+01 0.  1.
</event>
<event>
 4    1  0.4967105E-021  0.5000050E+01  0.7818608E-02  0.2136455E+00
        -11   -1    0    0    0    0  0.00000000000E+00  0.00000000000E+00  0.50000499739E+01  0.50000500000E+01  0.51100000000E-03 0.  1.
         11   -1    0    0    0    0 -0.00000000000E+00 -0.00000000000E+00 -0.50000499739E+01  0.50000500000E+01  0.51100000000E-03 0. -1.
         50    1    1    2    0    0  0.32047329539E-02 -0.21252204011E-01  0.61705762601E-02  0.50000500000E+01  0.50000000000E+01 0. -1.
         50    1    1    2    0    0 -0.32047329539E-02  0.21252204011E-01 -0.61705762601E-02  0.50000500000E+01  0.50000000000E+01 0.  1.
</event>
<event>
 4    1  0.4967105E-021  0.5000050E+01  0.7818608E-02  0.2136455E+00
        -11   -1    0    0    0    0  0.00000000000E+00  0.00000000000E+00  0.50000499739E+01  0.50000500000E+01  0.51100000000E-03 0.  1.
         11   -1    0    0    0    0 -0.00000000000E+00 -0.00000000000E+00 -0.50000499739E+01  0.50000500000E+01  0.51100000000E-03 0. -1.
         50    1    1    2    0    0 -0.16361136749E-01 -0.64131519852E-02  0.13827045451E-01  0.50000500000E+01  0.50000000000E+01 0.  0.
         50    1    1    2    0    0  0.16361136749E-01  0.64131519852E-02 -0.13827045451E-01  0.50000500000E+01  0.50000000000E+01 0.  1.
</event>
<event>
 4    1  0.4967105E-021  0.5000050E+01  0.7818608E-02  0.2136455E+00
        -11   -1    0    0    0    0  0.00000000000E+00  0.00000000000E+00  0.50000499739E+01  0.50000500000E+01  0.51100000000E-03 0.  1.
         11   -1    0    0    0    0 -0.00000000000E+00 -0.00000000000E+00 -0.50000499739E+01  0.50000500000E+01  0.51100000000E-03 0. -1.
         50    1    1    2    0    0  0.70547467632E-02 -0.12171827545E-01 -0.17380439072E-01  0.50000500000E+01  0.50000000000E+01 0. -1.
         50    1    1    2    0    0 -0.70547467632E-02  0.12171827545E-01  0.17380439072E-01  0.50000500000E+01  0.50000000000E+01 0.  0.
</event>
<event>
 4    1  0.4967105E-021  0.5000050E+01  0.7818608E-02  0.2136455E+00
        -11   -1    0    0    0    0  0.00000000000E+00  0.00000000000E+00  0.50000499739E+01  0.50000500000E+01  0.51100000000E-03 0. -1.
         11   -1    0    0    0    0 -0.00000000000E+00 -0.00000000000E+00 -0.50000499739E+01  0.50000500000E+01  0.51100000000E-03 0.  1.
         50    1    1    2    0    0 -0.32332612171E-02  0.19696707629E-01  0.10079098693E-01  0.50000500000E+01  0.50000000000E+01 0. -1.
         50    1    1    2    0    0  0.32332612171E-02 -0.19696707629E-01 -0.10079098693E-01  0.50000500000E+01  0.50000000000E+01 0.  1.
</event>
<event>
 4    1  0.4967105E-021  0.5000050E+01  0.7818608E-02  0.2136455E+00
        -11   -1    0    0    0    0  0.00000000000E+00  0.00000000000E+00  0.50000499739E+01  0.50000500000E+01  0.51100000000E-03 0. -1.
         11   -1    0    0    0    0 -0.00000000000E+00 -0.00000000000E+00 -0.50000499739E+01  0.50000500000E+01  0.51100000000E-03 0.  1.
         50    1    1    2    0    0 -0.13438303689E-01  0.16100145463E-01  0.77588536546E-02  0.50000500000E+01  0.50000000000E+01 0.  1.
         50    1    1    2    0    0  0.13438303689E-01 -0.16100145463E-01 -0.77588536546E-02  0.50000500000E+01  0.50000000000E+01 0.  0.
</event>
<event>
 4    1  0.4967105E-021  0.5000050E+01  0.7818608E-02  0.2136455E+00
        -11   -1    0    0    0    0  0.00000000000E+00  0.00000000000E+00  0.50000499739E+01  0.50000500000E+01  0.51100000000E-03 0. -1.
         11   -1    0    0    0    0 -0.00000000000E+00 -0.00000000000E+00 -0.50000499739E+01  0.50000500000E+01  0.51100000000E-03 0.  1.
         50    1    1    2    0    0 -0.74177995598E-02 -0.88079675268E-02  0.19167640902E-01  0.50000500000E+01  0.50000000000E+01 0. -1.
         50    1    1    2    0    0  0.74177995598E-02  0.88079675268E-02 -0.19167640902E-01  0.50000500000E+01  0.50000000000E+01 0.  0.
</event>
<event>
 4    1  0.4967105E-021  0.5000050E+01  0.7818608E-02  0.2136455E+00
        -11   -1    0    0    0    0  0.00000000000E+00  0.00000000000E+00  0.50000499739E+01  0.50000500000E+01  0.51100000000E-03 0. -1.
         11   -1    0    0    0    0 -0.00000000000E+00 -0.00000000000E+00 -0.50000499739E+01  0.50000500000E+01  0.51100000000E-03 0.  1.
         50    1    1    2    0    0  0.55063730681E-03  0.65362978791E-02  0.21376999523E-01  0.50000500000E+01  0.50000000000E+01 0.  0.
         50    1    1    2    0    0 -0.55063730681E-03 -0.65362978791E-02 -0.21376999523E-01  0.50000500000E+01  0.50000000000E+01 0.  1.
</event>
<event>
 4    1  0.4967105E-021  0.5000050E+01  0.7818608E-02  0.2136455E+00
        -11   -1    0    0    0    0  0.00000000000E+00  0.00000000000E+00  0.50000499739E+01  0.50000500000E+01  0.51100000000E-03 0. -1.
         11   -1    0    0    0    0 -0.00000000000E+00 -0.00000000000E+00 -0.50000499739E+01  0.50000500000E+01  0.51100000000E-03 0.  1.
         50    1    1    2    0    0 -0.47575877715E-02  0.79767365066E-02  0.20340588322E-01  0.50000500000E+01  0.50000000000E+01 0. -1.
         50    1    1    2    0    0  0.47575877715E-02 -0.79767365066E-02 -0.20340588322E-01  0.50000500000E+01  0.50000000000E+01 0.  1.
</event>
<event>
 4    1  0.4967105E-021  0.5000050E+01  0.7818608E-02  0.2136455E+00
        -11   -1    0    0    0    0  0.00000000000E+00  0.00000000000E+00  0.50000499739E+01  0.50000500000E+01  0.51100000000E-03 0. -1.
         11   -1    0    0    0    0 -0.00000000000E+00 -0.00000000000E+00 -0.50000499739E+01  0.50000500000E+01  0.51100000000E-03 0.  1.
         50    1    1    2    0    0  0.22058164305E-01  0.12331268686E-02  0.34524318423E-02  0.50000500000E+01  0.50000000000E+01 0. -1.
         50    1    1    2    0    0 -0.22058164305E-01 -0.12331268686E-02 -0.34524318423E-02  0.50000500000E+01  0.50000000000E+01 0.  1.
</event>
<event>
 4    1  0.4967105E-021  0.5000050E+01  0.7818608E-02  0.2136455E+00
        -11   -1    0    0    0    0  0.00000000000E+00  0.00000000000E+00  0.50000499739E+01  0.50000500000E+01  0.51100000000E-03 0. -1.
         11   -1    0    0    0    0 -0.00000000000E+00 -0.00000000000E+00 -0.50000499739E+01  0.50000500000E+01  0.51100000000E-03 0.  1.
         50    1    1    2    0    0 -0.17169276818E-01 -0.65393881981E-02  0.12745777165E-01  0.50000500000E+01  0.50000000000E+01 0. -1.
         50    1    1    2    0    0  0.17169276818E-01  0.65393881981E-02 -0.12745777165E-01  0.50000500000E+01  0.50000000000E+01 0.  1.
</event>
<event>
 4    1  0.4967105E-021  0.5000050E+01  0.7818608E-02  0.2136455E+00
        -11   -1    0    0    0    0  0.00000000000E+00  0.00000000000E+00  0.50000499739E+01  0.50000500000E+01  0.51100000000E-03 0.  1.
         11   -1    0    0    0    0 -0.00000000000E+00 -0.00000000000E+00 -0.50000499739E+01  0.50000500000E+01  0.51100000000E-03 0. -1.
         50    1    1    2    0    0 -0.21740687854E-01 -0.28859245053E-02  0.43607833428E-02  0.50000500000E+01  0.50000000000E+01 0.  0.
         50    1    1    2    0    0  0.21740687854E-01  0.28859245053E-02 -0.43607833428E-02  0.50000500000E+01  0.50000000000E+01 0.  1.
</event>
<event>
 4    1  0.4967105E-021  0.5000050E+01  0.7818608E-02  0.2136455E+00
        -11   -1    0    0    0    0  0.00000000000E+00  0.00000000000E+00  0.50000499739E+01  0.50000500000E+01  0.51100000000E-03 0.  1.
         11   -1    0    0    0    0 -0.00000000000E+00 -0.00000000000E+00 -0.50000499739E+01  0.50000500000E+01  0.51100000000E-03 0. -1.
         50    1    1    2    0    0  0.75182054883E-02  0.19114687279E-01  0.88378626644E-02  0.50000500000E+01  0.50000000000E+01 0.  1.
         50    1    1    2    0    0 -0.75182054883E-02 -0.19114687279E-01 -0.88378626644E-02  0.50000500000E+01  0.50000000000E+01 0. -1.
</event>
<event>
 4    1  0.4967105E-021  0.5000050E+01  0.7818608E-02  0.2136455E+00
        -11   -1    0    0    0    0  0.00000000000E+00  0.00000000000E+00  0.50000499739E+01  0.50000500000E+01  0.51100000000E-03 0.  1.
         11   -1    0    0    0    0 -0.00000000000E+00 -0.00000000000E+00 -0.50000499739E+01  0.50000500000E+01  0.51100000000E-03 0. -1.
         50    1    1    2    0    0 -0.48387736098E-02  0.21824489062E-01  0.52957259129E-03  0.50000500000E+01  0.50000000000E+01 0. -1.
         50    1    1    2    0    0  0.48387736098E-02 -0.21824489062E-01 -0.52957259129E-03  0.50000500000E+01  0.50000000000E+01 0.  1.
</event>
<event>
 4    1  0.4967105E-021  0.5000050E+01  0.7818608E-02  0.2136455E+00
        -11   -1    0    0    0    0  0.00000000000E+00  0.00000000000E+00  0.50000499739E+01  0.50000500000E+01  0.51100000000E-03 0.  1.
         11   -1    0    0    0    0 -0.00000000000E+00 -0.00000000000E+00 -0.50000499739E+01  0.50000500000E+01  0.51100000000E-03 0. -1.
         50    1    1    2    0    0  0.21144568950E-01 -0.56593588624E-02 -0.45696128038E-02  0.50000500000E+01  0.50000000000E+01 0.  1.
         50    1    1    2    0    0 -0.21144568950E-01  0.56593588624E-02  0.45696128038E-02  0.50000500000E+01  0.50000000000E+01 0.  0.
</event>
<event>
 4    1  0.4967105E-021  0.5000050E+01  0.7818608E-02  0.2136455E+00
        -11   -1    0    0    0    0  0.00000000000E+00  0.00000000000E+00  0.50000499739E+01  0.50000500000E+01  0.51100000000E-03 0.  1.
         11   -1    0    0    0    0 -0.00000000000E+00 -0.00000000000E+00 -0.50000499739E+01  0.50000500000E+01  0.51100000000E-03 0. -1.
         50    1    1    2    0    0  0.15834863049E-01  0.15735903964E-01  0.12809912735E-02  0.50000500000E+01  0.50000000000E+01 0.  0.
         50    1    1    2    0    0 -0.15834863049E-01 -0.15735903964E-01 -0.12809912735E-02  0.50000500000E+01  0.50000000000E+01 0.  1.
</event>
<event>
 4    1  0.4967105E-021  0.5000050E+01  0.7818608E-02  0.2136455E+00
        -11   -1    0    0    0    0  0.00000000000E+00  0.00000000000E+00  0.50000499739E+01  0.50000500000E+01  0.51100000000E-03 0. -1.
         11   -1    0    0    0    0 -0.00000000000E+00 -0.00000000000E+00 -0.50000499739E+01  0.50000500000E+01  0.51100000000E-03 0.  1.
         50    1    1    2    0    0 -0.22075412412E-01 -0.33674982931E-02  0.11569883705E-02  0.50000500000E+01  0.50000000000E+01 0. -1.
         50    1    1    2    0    0  0.22075412412E-01  0.33674982931E-02 -0.11569883705E-02  0.50000500000E+01  0.50000000000E+01 0.  1.
</event>
<event>
 4    1  0.4967105E-021  0.5000050E+01  0.7818608E-02  0.2136455E+00
        -11   -1    0    0    0    0  0.00000000000E+00  0.00000000000E+00  0.50000499739E+01  0.50000500000E+01  0.51100000000E-03 0. -1.
         11   -1    0    0    0    0 -0.00000000000E+00 -0.00000000000E+00 -0.50000499739E+01  0.50000500000E+01  0.51100000000E-03 0.  1.
         50    1    1    2    0    0 -0.67149164854E-02  0.64630566367E-02 -0.20325877484E-01  0.50000500000E+01  0.50000000000E+01 0.  0.
         50    1    1    2    0    0  0.67149164854E-02 -0.64630566367E-02  0.20325877484E-01  0.50000500000E+01  0.50000000000E+01 0. -1.
</event>
<event>
 4    1  0.4967105E-021  0.5000050E+01  0.7818608E-02  0.2136455E+00
        -11   -1    0    0    0    0  0.00000000000E+00  0.00000000000E+00  0.50000499739E+01  0.50000500000E+01  0.51100000000E-03 0. -1.
         11   -1    0    0    0    0 -0.00000000000E+00 -0.00000000000E+00 -0.50000499739E+01  0.50000500000E+01  0.51100000000E-03 0.  1.
         50    1    1    2    0    0 -0.17920948045E-01  0.11203197184E-02 -0.13326177430E-01  0.50000500000E+01  0.50000000000E+01 0.  0.
         50    1    1    2    0    0  0.17920948045E-01 -0.11203197184E-02  0.13326177430E-01  0.50000500000E+01  0.50000000000E+01 0.  0.
</event>
<event>
 4    1  0.4967105E-021  0.5000050E+01  0.7818608E-02  0.2136455E+00
        -11   -1    0    0    0    0  0.00000000000E+00  0.00000000000E+00  0.50000499739E+01  0.50000500000E+01  0.51100000000E-03 0. -1.
         11   -1    0    0    0    0 -0.00000000000E+00 -0.00000000000E+00 -0.50000499739E+01  0.50000500000E+01  0.51100000000E-03 0.  1.
         50    1    1    2    0    0  0.21887296132E-01 -0.14575787152E-02  0.43386901630E-02  0.50000500000E+01  0.50000000000E+01 0. -1.
         50    1    1    2    0    0 -0.21887296132E-01  0.14575787152E-02 -0.43386901630E-02  0.50000500000E+01  0.50000000000E+01 0.  1.
</event>
<event>
 4    1  0.4967105E-021  0.5000050E+01  0.7818608E-02  0.2136455E+00
        -11   -1    0    0    0    0  0.00000000000E+00  0.00000000000E+00  0.50000499739E+01  0.50000500000E+01  0.51100000000E-03 0. -1.
         11   -1    0    0    0    0 -0.00000000000E+00 -0.00000000000E+00 -0.50000499739E+01  0.50000500000E+01  0.51100000000E-03 0.  1.
         50    1    1    2    0    0  0.13974950405E-01  0.87241339019E-02 -0.15119284006E-01  0.50000500000E+01  0.50000000000E+01 0.  0.
         50    1    1    2    0    0 -0.13974950405E-01 -0.87241339019E-02  0.15119284006E-01  0.50000500000E+01  0.50000000000E+01 0. -1.
</event>
<event>
 4    1  0.4967105E-021  0.5000050E+01  0.7818608E-02  0.2136455E+00
        -11   -1    0    0    0    0  0.00000000000E+00  0.00000000000E+00  0.50000499739E+01  0.50000500000E+01  0.51100000000E-03 0. -1.
         11   -1    0    0    0    0 -0.00000000000E+00 -0.00000000000E+00 -0.50000499739E+01  0.50000500000E+01  0.51100000000E-03 0.  1.
         50    1    1    2    0    0  0.65638531051E-02 -0.65873941709E-02  0.20335303549E-01  0.50000500000E+01  0.50000000000E+01 0.  0.
         50    1    1    2    0    0 -0.65638531051E-02  0.65873941709E-02 -0.20335303549E-01  0.50000500000E+01  0.50000000000E+01 0.  1.
</event>
<event>
 4    1  0.4967105E-021  0.5000050E+01  0.7818608E-02  0.2136455E+00
        -11   -1    0    0    0    0  0.00000000000E+00  0.00000000000E+00  0.50000499739E+01  0.50000500000E+01  0.51100000000E-03 0. -1.
         11   -1    0    0    0    0 -0.00000000000E+00 -0.00000000000E+00 -0.50000499739E+01  0.50000500000E+01  0.51100000000E-03 0.  1.
         50    1    1    2    0    0  0.16365071472E-01 -0.14568615405E-01 -0.44656892981E-02  0.50000500000E+01  0.50000000000E+01 0.  1.
         50    1    1    2    0    0 -0.16365071472E-01  0.14568615405E-01  0.44656892981E-02  0.50000500000E+01  0.50000000000E+01 0. -1.
</event>
<event>
 4    1  0.4967105E-021  0.5000050E+01  0.7818608E-02  0.2136455E+00
        -11   -1    0    0    0    0  0.00000000000E+00  0.00000000000E+00  0.50000499739E+01  0.50000500000E+01  0.51100000000E-03 0. -1.
         11   -1    0    0    0    0 -0.00000000000E+00 -0.00000000000E+00 -0.50000499739E+01  0.50000500000E+01  0.51100000000E-03 0.  1.
         50    1    1    2    0    0 -0.37189535817E-03  0.10595517307E-01  0.19687539380E-01  0.50000500000E+01  0.50000000000E+01 0. -1.
         50    1    1    2    0    0  0.37189535817E-03 -0.10595517307E-01 -0.19687539380E-01  0.50000500000E+01  0.50000000000E+01 0.  1.
</event>
<event>
 4    1  0.4967105E-021  0.5000050E+01  0.7818608E-02  0.2136455E+00
        -11   -1    0    0    0    0  0.00000000000E+00  0.00000000000E+00  0.50000499739E+01  0.50000500000E+01  0.51100000000E-03 0. -1.
         11   -1    0    0    0    0 -0.00000000000E+00 -0.00000000000E+00 -0.50000499739E+01  0.50000500000E+01  0.51100000000E-03 0.  1.
         50    1    1    2    0    0 -0.22237804148E-01  0.13036934997E-02 -0.19449806974E-02  0.50000500000E+01  0.50000000000E+01 0. -1.
         50    1    1    2    0    0  0.22237804148E-01 -0.13036934997E-02  0.19449806974E-02  0.50000500000E+01  0.50000000000E+01 0.  1.
</event>
<event>
 4    1  0.4967105E-021  0.5000050E+01  0.7818608E-02  0.2136455E+00
        -11   -1    0    0    0    0  0.00000000000E+00  0.00000000000E+00  0.50000499739E+01  0.50000500000E+01  0.51100000000E-03 0. -1.
         11   -1    0    0    0    0 -0.00000000000E+00 -0.00000000000E+00 -0.50000499739E+01  0.50000500000E+01  0.51100000000E-03 0.  1.
         50    1    1    2    0    0  0.14853658060E-01  0.12385483600E-01  0.11223686481E-01  0.50000500000E+01  0.50000000000E+01 0.  0.
         50    1    1    2    0    0 -0.14853658060E-01 -0.12385483600E-01 -0.11223686481E-01  0.50000500000E+01  0.50000000000E+01 0. -1.
</event>
<event>
 4    1  0.4967105E-021  0.5000050E+01  0.7818608E-02  0.2136455E+00
        -11   -1    0    0    0    0  0.00000000000E+00  0.00000000000E+00  0.50000499739E+01  0.50000500000E+01  0.51100000000E-03 0. -1.
         11   -1    0    0    0    0 -0.00000000000E+00 -0.00000000000E+00 -0.50000499739E+01  0.50000500000E+01  0.51100000000E-03 0.  1.
         50    1    1    2    0    0 -0.15230292744E-02  0.64492849089E-02  0.21356254493E-01  0.50000500000E+01  0.50000000000E+01 0. -1.
         50    1    1    2    0    0  0.15230292744E-02 -0.64492849089E-02 -0.21356254493E-01  0.50000500000E+01  0.50000000000E+01 0.  1.
</event>
<event>
 4    1  0.4967105E-021  0.5000050E+01  0.7818608E-02  0.2136455E+00
        -11   -1    0    0    0    0  0.00000000000E+00  0.00000000000E+00  0.50000499739E+01  0.50000500000E+01  0.51100000000E-03 0.  1.
         11   -1    0    0    0    0 -0.00000000000E+00 -0.00000000000E+00 -0.50000499739E+01  0.50000500000E+01  0.51100000000E-03 0. -1.
         50    1    1    2    0    0 -0.14646447643E-01  0.13725453321E-01 -0.98537303893E-02  0.50000500000E+01  0.50000000000E+01 0.  0.
         50    1    1    2    0    0  0.14646447643E-01 -0.13725453321E-01  0.98537303893E-02  0.50000500000E+01  0.50000000000E+01 0. -1.
</event>
<event>
 4    1  0.4967105E-021  0.5000050E+01  0.7818608E-02  0.2136455E+00
        -11   -1    0    0    0    0  0.00000000000E+00  0.00000000000E+00  0.50000499739E+01  0.50000500000E+01  0.51100000000E-03 0.  1.
         11   -1    0    0    0    0 -0.00000000000E+00 -0.00000000000E+00 -0.50000499739E+01  0.50000500000E+01  0.51100000000E-03 0. -1.
         50    1    1    2    0    0  0.87630180584E-02 -0.80650401921E-02  0.18925304257E-01  0.50000500000E+01  0.50000000000E+01 0. -1.
         50    1    1    2    0    0 -0.87630180584E-02  0.80650401921E-02 -0.18925304257E-01  0.50000500000E+01  0.50000000000E+01 0. -1.
</event>
<event>
 4    1  0.4967105E-021  0.5000050E+01  0.7818608E-02  0.2136455E+00
        -11   -1    0    0    0    0  0.00000000000E+00  0.00000000000E+00  0.50000499739E+01  0.50000500000E+01  0.51100000000E-03 0. -1.
         11   -1    0    0    0    0 -0.00000000000E+00 -0.00000000000E+00 -0.50000499739E+01  0.50000500000E+01  0.51100000000E-03 0.  1.
         50    1    1    2    0    0 -0.70159964801E-02  0.18309551651E-01  0.10748888860E-01  0.50000500000E+01  0.50000000000E+01 0. -1.
         50    1    1    2    0    0  0.70159964801E-02 -0.18309551651E-01 -0.10748888860E-01  0.50000500000E+01  0.50000000000E+01 0. -1.
</event>
<event>
 4    1  0.4967105E-021  0.5000050E+01  0.7818608E-02  0.2136455E+00
        -11   -1    0    0    0    0  0.00000000000E+00  0.00000000000E+00  0.50000499739E+01  0.50000500000E+01  0.51100000000E-03 0. -1.
         11   -1    0    0    0    0 -0.00000000000E+00 -0.00000000000E+00 -0.50000499739E+01  0.50000500000E+01  0.51100000000E-03 0.  1.
         50    1    1    2    0    0 -0.18465529076E-01  0.11143304606E-01 -0.59036851545E-02  0.50000500000E+01  0.50000000000E+01 0.  1.
         50    1    1    2    0    0  0.18465529076E-01 -0.11143304606E-01  0.59036851545E-02  0.50000500000E+01  0.50000000000E+01 0. -1.
</event>
<event>
 4    1  0.4967105E-021  0.5000050E+01  0.7818608E-02  0.2136455E+00
        -11   -1    0    0    0    0  0.00000000000E+00  0.00000000000E+00  0.50000499739E+01  0.50000500000E+01  0.51100000000E-03 0.  1.
         11   -1    0    0    0    0 -0.00000000000E+00 -0.00000000000E+00 -0.50000499739E+01  0.50000500000E+01  0.51100000000E-03 0. -1.
         50    1    1    2    0    0 -0.33480220860E-02 -0.13200132401E-01  0.17735550533E-01  0.50000500000E+01  0.50000000000E+01 0. -1.
         50    1    1    2    0    0  0.33480220860E-02  0.13200132401E-01 -0.17735550533E-01  0.50000500000E+01  0.50000000000E+01 0. -1.
</event>
<event>
 4    1  0.4967105E-021  0.5000050E+01  0.7818608E-02  0.2136455E+00
        -11   -1    0    0    0    0  0.00000000000E+00  0.00000000000E+00  0.50000499739E+01  0.50000500000E+01  0.51100000000E-03 0. -1.
         11   -1    0    0    0    0 -0.00000000000E+00 -0.00000000000E+00 -0.50000499739E+01  0.50000500000E+01  0.51100000000E-03 0.  1.
         50    1    1    2    0    0 -0.18698927375E-01 -0.11356979082E-01 -0.46229472390E-02  0.50000500000E+01  0.50000000000E+01 0.  0.
         50    1    1    2    0    0  0.18698927375E-01  0.11356979082E-01  0.46229472390E-02  0.50000500000E+01  0.50000000000E+01 0.  0.
</event>
<event>
 4    1  0.4967105E-021  0.5000050E+01  0.7818608E-02  0.2136455E+00
        -11   -1    0    0    0    0  0.00000000000E+00  0.00000000000E+00  0.50000499739E+01  0.50000500000E+01  0.51100000000E-03 0.  1.
         11   -1    0    0    0    0 -0.00000000000E+00 -0.00000000000E+00 -0.50000499739E+01  0.50000500000E+01  0.51100000000E-03 0. -1.
         50    1    1    2    0    0  0.11995785794E-01 -0.17603874105E-01 -0.67975907278E-02  0.50000500000E+01  0.50000000000E+01 0.  1.
         50    1    1    2    0    0 -0.11995785794E-01  0.17603874105E-01  0.67975907278E-02  0.50000500000E+01  0.50000000000E+01 0.  0.
</event>
<event>
 4    1  0.4967105E-021  0.5000050E+01  0.7818608E-02  0.2136455E+00
        -11   -1    0    0    0    0  0.00000000000E+00  0.00000000000E+00  0.50000499739E+01  0.50000500000E+01  0.51100000000E-03 0.  1.
         11   -1    0    0    0    0 -0.00000000000E+00 -0.00000000000E+00 -0.50000499739E+01  0.50000500000E+01  0.51100000000E-03 0. -1.
         50    1    1    2    0    0 -0.22744904018E-02 -0.95318068877E-02  0.20099100748E-01  0.50000500000E+01  0.50000000000E+01 0.  1.
         50    1    1    2    0    0  0.22744904018E-02  0.95318068877E-02 -0.20099100748E-01  0.50000500000E+01  0.50000000000E+01 0.  0.
</event>
<event>
 4    1  0.4967105E-021  0.5000050E+01  0.7818608E-02  0.2136455E+00
        -11   -1    0    0    0    0  0.00000000000E+00  0.00000000000E+00  0.50000499739E+01  0.50000500000E+01  0.51100000000E-03 0. -1.
         11   -1    0    0    0    0 -0.00000000000E+00 -0.00000000000E+00 -0.50000499739E+01  0.50000500000E+01  0.51100000000E-03 0.  1.
         50    1    1    2    0    0  0.13384412792E-01 -0.14284002725E-01 -0.10808665984E-01  0.50000500000E+01  0.50000000000E+01 0.  1.
         50    1    1    2    0    0 -0.13384412792E-01  0.14284002725E-01  0.10808665984E-01  0.50000500000E+01  0.50000000000E+01 0. -1.
</event>
<event>
 4    1  0.4967105E-021  0.5000050E+01  0.7818608E-02  0.2136455E+00
        -11   -1    0    0    0    0  0.00000000000E+00  0.00000000000E+00  0.50000499739E+01  0.50000500000E+01  0.51100000000E-03 0.  1.
         11   -1    0    0    0    0 -0.00000000000E+00 -0.00000000000E+00 -0.50000499739E+01  0.50000500000E+01  0.51100000000E-03 0. -1.
         50    1    1    2    0    0  0.18338691573E-01  0.12014114214E-01  0.43995398664E-02  0.50000500000E+01  0.50000000000E+01 0.  0.
         50    1    1    2    0    0 -0.18338691573E-01 -0.12014114214E-01 -0.43995398664E-02  0.50000500000E+01  0.50000000000E+01 0.  1.
</event>
<event>
 4    1  0.4967105E-021  0.5000050E+01  0.7818608E-02  0.2136455E+00
        -11   -1    0    0    0    0  0.00000000000E+00  0.00000000000E+00  0.50000499739E+01  0.50000500000E+01  0.51100000000E-03 0.  1.
         11   -1    0    0    0    0 -0.00000000000E+00 -0.00000000000E+00 -0.50000499739E+01  0.50000500000E+01  0.51100000000E-03 0. -1.
         50    1    1    2    0    0 -0.30533054072E-02 -0.84218381191E-02 -0.20487861499E-01  0.50000500000E+01  0.50000000000E+01 0. -1.
         50    1    1    2    0    0  0.30533054072E-02  0.84218381191E-02  0.20487861499E-01  0.50000500000E+01  0.50000000000E+01 0.  0.
</event>
<event>
 4    1  0.4967105E-021  0.5000050E+01  0.7818608E-02  0.2136455E+00
        -11   -1    0    0    0    0  0.00000000000E+00  0.00000000000E+00  0.50000499739E+01  0.50000500000E+01  0.51100000000E-03 0.  1.
         11   -1    0    0    0    0 -0.00000000000E+00 -0.00000000000E+00 -0.50000499739E+01  0.50000500000E+01  0.51100000000E-03 0. -1.
         50    1    1    2    0    0  0.58467424628E-03 -0.15424011111E-01 -0.16179015337E-01  0.50000500000E+01  0.50000000000E+01 0. -1.
         50    1    1    2    0    0 -0.58467424628E-03  0.15424011111E-01  0.16179015337E-01  0.50000500000E+01  0.50000000000E+01 0.  1.
</event>
<event>
 4    1  0.4967105E-021  0.5000050E+01  0.7818608E-02  0.2136455E+00
        -11   -1    0    0    0    0  0.00000000000E+00  0.00000000000E+00  0.50000499739E+01  0.50000500000E+01  0.51100000000E-03 0. -1.
         11   -1    0    0    0    0 -0.00000000000E+00 -0.00000000000E+00 -0.50000499739E+01  0.50000500000E+01  0.51100000000E-03 0.  1.
         50    1    1    2    0    0  0.55315329058E-02 -0.11991591291E-01  0.18044566551E-01  0.50000500000E+01  0.50000000000E+01 0.  0.
         50    1    1    2    0    0 -0.55315329058E-02  0.11991591291E-01 -0.18044566551E-01  0.50000500000E+01  0.50000000000E+01 0. -1.
</event>
<event>
 4    1  0.4967105E-021  0.5000050E+01  0.7818608E-02  0.2136455E+00
        -11   -1    0    0    0    0  0.00000000000E+00  0.00000000000E+00  0.50000499739E+01  0.50000500000E+01  0.51100000000E-03 0. -1.
         11   -1    0    0    0    0 -0.00000000000E+00 -0.00000000000E+00 -0.50000499739E+01  0.50000500000E+01  0.51100000000E-03 0.  1.
         50    1    1    2    0    0  0.19824317116E-01 -0.94640887953E-02  0.41749220548E-02  0.50000500000E+01  0.50000000000E+01 0.  1.
         50    1    1    2    0    0 -0.19824317116E-01  0.94640887953E-02 -0.41749220548E-02  0.50000500000E+01  0.50000000000E+01 0.  0.
</event>
<event>
 4    1  0.4967105E-021  0.5000050E+01  0.7818608E-02  0.2136455E+00
        -11   -1    0    0    0    0  0.00000000000E+00  0.00000000000E+00  0.50000499739E+01  0.50000500000E+01  0.51100000000E-03 0.  1.
         11   -1    0    0    0    0 -0.00000000000E+00 -0.00000000000E+00 -0.50000499739E+01  0.50000500000E+01  0.51100000000E-03 0. -1.
         50    1    1    2    0    0 -0.31451236164E-02 -0.50779314977E-02  0.21548208954E-01  0.50000500000E+01  0.50000000000E+01 0.  1.
         50    1    1    2    0    0  0.31451236164E-02  0.50779314977E-02 -0.21548208954E-01  0.50000500000E+01  0.50000000000E+01 0.  0.
</event>
<event>
 4    1  0.4967105E-021  0.5000050E+01  0.7818608E-02  0.2136455E+00
        -11   -1    0    0    0    0  0.00000000000E+00  0.00000000000E+00  0.50000499739E+01  0.50000500000E+01  0.51100000000E-03 0. -1.
         11   -1    0    0    0    0 -0.00000000000E+00 -0.00000000000E+00 -0.50000499739E+01  0.50000500000E+01  0.51100000000E-03 0.  1.
         50    1    1    2    0    0 -0.12030292222E-01 -0.14306843067E-01  0.12271463258E-01  0.50000500000E+01  0.50000000000E+01 0.  1.
         50    1    1    2    0    0  0.12030292222E-01  0.14306843067E-01 -0.12271463258E-01  0.50000500000E+01  0.50000000000E+01 0.  0.
</event>
<event>
 4    1  0.4967105E-021  0.5000050E+01  0.7818608E-02  0.2136455E+00
        -11   -1    0    0    0    0  0.00000000000E+00  0.00000000000E+00  0.50000499739E+01  0.50000500000E+01  0.51100000000E-03 0. -1.
         11   -1    0    0    0    0 -0.00000000000E+00 -0.00000000000E+00 -0.50000499739E+01  0.50000500000E+01  0.51100000000E-03 0.  1.
         50    1    1    2    0    0  0.14510052917E-01 -0.13063737876E-01  0.10899523707E-01  0.50000500000E+01  0.50000000000E+01 0. -1.
         50    1    1    2    0    0 -0.14510052917E-01  0.13063737876E-01 -0.10899523707E-01  0.50000500000E+01  0.50000000000E+01 0.  1.
</event>
<event>
 4    1  0.4967105E-021  0.5000050E+01  0.7818608E-02  0.2136455E+00
        -11   -1    0    0    0    0  0.00000000000E+00  0.00000000000E+00  0.50000499739E+01  0.50000500000E+01  0.51100000000E-03 0. -1.
         11   -1    0    0    0    0 -0.00000000000E+00 -0.00000000000E+00 -0.50000499739E+01  0.50000500000E+01  0.51100000000E-03 0.  1.
         50    1    1    2    0    0 -0.14285346665E-01 -0.24225156234E-02 -0.17031229807E-01  0.50000500000E+01  0.50000000000E+01 0.  0.
         50    1    1    2    0    0  0.14285346665E-01  0.24225156234E-02  0.17031229807E-01  0.50000500000E+01  0.50000000000E+01 0. -1.
</event>
<event>
 4    1  0.4967105E-021  0.5000050E+01  0.7818608E-02  0.2136455E+00
        -11   -1    0    0    0    0  0.00000000000E+00  0.00000000000E+00  0.50000499739E+01  0.50000500000E+01  0.51100000000E-03 0.  1.
         11   -1    0    0    0    0 -0.00000000000E+00 -0.00000000000E+00 -0.50000499739E+01  0.50000500000E+01  0.51100000000E-03 0. -1.
         50    1    1    2    0    0 -0.15175819596E-02 -0.21558477951E-01 -0.57385950747E-02  0.50000500000E+01  0.50000000000E+01 0.  0.
         50    1    1    2    0    0  0.15175819596E-02  0.21558477951E-01  0.57385950747E-02  0.50000500000E+01  0.50000000000E+01 0. -1.
</event>
<event>
 4    1  0.4967105E-021  0.5000050E+01  0.7818608E-02  0.2136455E+00
        -11   -1    0    0    0    0  0.00000000000E+00  0.00000000000E+00  0.50000499739E+01  0.50000500000E+01  0.51100000000E-03 0. -1.
         11   -1    0    0    0    0 -0.00000000000E+00 -0.00000000000E+00 -0.50000499739E+01  0.50000500000E+01  0.51100000000E-03 0.  1.
         50    1    1    2    0    0  0.22704952127E-02  0.19248416112E-01  0.11151046079E-01  0.50000500000E+01  0.50000000000E+01 0.  0.
         50    1    1    2    0    0 -0.22704952127E-02 -0.19248416112E-01 -0.11151046079E-01  0.50000500000E+01  0.50000000000E+01 0. -1.
</event>
<event>
 4    1  0.4967105E-021  0.5000050E+01  0.7818608E-02  0.2136455E+00
        -11   -1    0    0    0    0  0.00000000000E+00  0.00000000000E+00  0.50000499739E+01  0.50000500000E+01  0.51100000000E-03 0.  1.
         11   -1    0    0    0    0 -0.00000000000E+00 -0.00000000000E+00 -0.50000499739E+01  0.50000500000E+01  0.51100000000E-03 0. -1.
         50    1    1    2    0    0  0.45385067952E-02  0.60472346336E-02 -0.21043654848E-01  0.50000500000E+01  0.50000000000E+01 0.  0.
         50    1    1    2    0    0 -0.45385067952E-02 -0.60472346336E-02  0.21043654848E-01  0.50000500000E+01  0.50000000000E+01 0.  1.
</event>
<event>
 4    1  0.4967105E-021  0.5000050E+01  0.7818608E-02  0.2136455E+00
        -11   -1    0    0    0    0  0.00000000000E+00  0.00000000000E+00  0.50000499739E+01  0.50000500000E+01  0.51100000000E-03 0.  1.
         11   -1    0    0    0    0 -0.00000000000E+00 -0.00000000000E+00 -0.50000499739E+01  0.50000500000E+01  0.51100000000E-03 0. -1.
         50    1    1    2    0    0  0.21579333725E-01 -0.54044597501E-02 -0.22642152743E-02  0.50000500000E+01  0.50000000000E+01 0. -1.
         50    1    1    2    0    0 -0.21579333725E-01  0.54044597501E-02  0.22642152743E-02  0.50000500000E+01  0.50000000000E+01 0.  1.
</event>
<event>
 4    1  0.4967105E-021  0.5000050E+01  0.7818608E-02  0.2136455E+00
        -11   -1    0    0    0    0  0.00000000000E+00  0.00000000000E+00  0.50000499739E+01  0.50000500000E+01  0.51100000000E-03 0. -1.
         11   -1    0    0    0    0 -0.00000000000E+00 -0.00000000000E+00 -0.50000499739E+01  0.50000500000E+01  0.51100000000E-03 0.  1.
         50    1    1    2    0    0 -0.25005642401E-02  0.16416726932E-01 -0.14974670458E-01  0.50000500000E+01  0.50000000000E+01 0.  0.
         50    1    1    2    0    0  0.25005642401E-02 -0.16416726932E-01  0.14974670458E-01  0.50000500000E+01  0.50000000000E+01 0.  1.
</event>
<event>
 4    1  0.4967105E-021  0.5000050E+01  0.7818608E-02  0.2136455E+00
        -11   -1    0    0    0    0  0.00000000000E+00  0.00000000000E+00  0.50000499739E+01  0.50000500000E+01  0.51100000000E-03 0. -1.
         11   -1    0    0    0    0 -0.00000000000E+00 -0.00000000000E+00 -0.50000499739E+01  0.50000500000E+01  0.51100000000E-03 0.  1.
         50    1    1    2    0    0  0.14716125085E-01  0.16652490487E-01  0.24764335314E-02  0.50000500000E+01  0.50000000000E+01 0.  1.
         50    1    1    2    0    0 -0.14716125085E-01 -0.16652490487E-01 -0.24764335314E-02  0.50000500000E+01  0.50000000000E+01 0. -1.
</event>
<event>
 4    1  0.4967105E-021  0.5000050E+01  0.7818608E-02  0.2136455E+00
        -11   -1    0    0    0    0  0.00000000000E+00  0.00000000000E+00  0.50000499739E+01  0.50000500000E+01  0.51100000000E-03 0. -1.
         11   -1    0    0    0    0 -0.00000000000E+00 -0.00000000000E+00 -0.50000499739E+01  0.50000500000E+01  0.51100000000E-03 0.  1.
         50    1    1    2    0    0  0.25025659100E-02 -0.19056724110E-01  0.11427201322E-01  0.50000500000E+01  0.50000000000E+01 0.  0.
         50    1    1    2    0    0 -0.25025659100E-02  0.19056724110E-01 -0.11427201322E-01  0.50000500000E+01  0.50000000000E+01 0. -1.
</event>
<event>
 4    1  0.4967105E-021  0.5000050E+01  0.7818608E-02  0.2136455E+00
        -11   -1    0    0    0    0  0.00000000000E+00  0.00000000000E+00  0.50000499739E+01  0.50000500000E+01  0.51100000000E-03 0. -1.
         11   -1    0    0    0    0 -0.00000000000E+00 -0.00000000000E+00 -0.50000499739E+01  0.50000500000E+01  0.51100000000E-03 0.  1.
         50    1    1    2    0    0 -0.17348597479E-01 -0.50727211688E-05 -0.14107751053E-01  0.50000500000E+01  0.50000000000E+01 0.  0.
         50    1    1    2    0    0  0.17348597479E-01  0.50727211688E-05  0.14107751053E-01  0.50000500000E+01  0.50000000000E+01 0.  0.
</event>
<event>
 4    1  0.4967105E-021  0.5000050E+01  0.7818608E-02  0.2136455E+00
        -11   -1    0    0    0    0  0.00000000000E+00  0.00000000000E+00  0.50000499739E+01  0.50000500000E+01  0.51100000000E-03 0.  1.
         11   -1    0    0    0    0 -0.00000000000E+00 -0.00000000000E+00 -0.50000499739E+01  0.50000500000E+01  0.51100000000E-03 0. -1.
         50    1    1    2    0    0  0.44264865416E-02 -0.20762615594E-01  0.70229986906E-02  0.50000500000E+01  0.50000000000E+01 0.  1.
         50    1    1    2    0    0 -0.44264865416E-02  0.20762615594E-01 -0.70229986906E-02  0.50000500000E+01  0.50000000000E+01 0. -1.
</event>
<event>
 4    1  0.4967105E-021  0.5000050E+01  0.7818608E-02  0.2136455E+00
        -11   -1    0    0    0    0  0.00000000000E+00  0.00000000000E+00  0.50000499739E+01  0.50000500000E+01  0.51100000000E-03 0. -1.
         11   -1    0    0    0    0 -0.00000000000E+00 -0.00000000000E+00 -0.50000499739E+01  0.50000500000E+01  0.51100000000E-03 0.  1.
         50    1    1    2    0    0 -0.26703488442E-02  0.51547630099E-03  0.22194729582E-01  0.50000500000E+01  0.50000000000E+01 0. -1.
         50    1    1    2    0    0  0.26703488442E-02 -0.51547630099E-03 -0.22194729582E-01  0.50000500000E+01  0.50000000000E+01 0.  0.
</event>
<event>
 4    1  0.4967105E-021  0.5000050E+01  0.7818608E-02  0.2136455E+00
        -11   -1    0    0    0    0  0.00000000000E+00  0.00000000000E+00  0.50000499739E+01  0.50000500000E+01  0.51100000000E-03 0.  1.
         11   -1    0    0    0    0 -0.00000000000E+00 -0.00000000000E+00 -0.50000499739E+01  0.50000500000E+01  0.51100000000E-03 0. -1.
         50    1    1    2    0    0 -0.99606814650E-02  0.12690986430E-01 -0.15483093625E-01  0.50000500000E+01  0.50000000000E+01 0. -1.
         50    1    1    2    0    0  0.99606814650E-02 -0.12690986430E-01  0.15483093625E-01  0.50000500000E+01  0.50000000000E+01 0.  1.
</event>
<event>
 4    1  0.4967105E-021  0.5000050E+01  0.7818608E-02  0.2136455E+00
        -11   -1    0    0    0    0  0.00000000000E+00  0.00000000000E+00  0.50000499739E+01  0.50000500000E+01  0.51100000000E-03 0. -1.
         11   -1    0    0    0    0 -0.00000000000E+00 -0.00000000000E+00 -0.50000499739E+01  0.50000500000E+01  0.51100000000E-03 0.  1.
         50    1    1    2    0    0  0.16274611105E-01 -0.14266350807E-01 -0.56223454212E-02  0.50000500000E+01  0.50000000000E+01 0.  0.
         50    1    1    2    0    0 -0.16274611105E-01  0.14266350807E-01  0.56223454212E-02  0.50000500000E+01  0.50000000000E+01 0.  1.
</event>
<event>
 4    1  0.4967105E-021  0.5000050E+01  0.7818608E-02  0.2136455E+00
        -11   -1    0    0    0    0  0.00000000000E+00  0.00000000000E+00  0.50000499739E+01  0.50000500000E+01  0.51100000000E-03 0.  1.
         11   -1    0    0    0    0 -0.00000000000E+00 -0.00000000000E+00 -0.50000499739E+01  0.50000500000E+01  0.51100000000E-03 0. -1.
         50    1    1    2    0    0 -0.15200426471E-01  0.16236969874E-01 -0.23044184588E-02  0.50000500000E+01  0.50000000000E+01 0.  1.
         50    1    1    2    0    0  0.15200426471E-01 -0.16236969874E-01  0.23044184588E-02  0.50000500000E+01  0.50000000000E+01 0.  0.
</event>
<event>
 4    1  0.4967105E-021  0.5000050E+01  0.7818608E-02  0.2136455E+00
        -11   -1    0    0    0    0  0.00000000000E+00  0.00000000000E+00  0.50000499739E+01  0.50000500000E+01  0.51100000000E-03 0.  1.
         11   -1    0    0    0    0 -0.00000000000E+00 -0.00000000000E+00 -0.50000499739E+01  0.50000500000E+01  0.51100000000E-03 0. -1.
         50    1    1    2    0    0 -0.17642120440E-01 -0.11429854802E-01  0.76234182356E-02  0.50000500000E+01  0.50000000000E+01 0.  1.
         50    1    1    2    0    0  0.17642120440E-01  0.11429854802E-01 -0.76234182356E-02  0.50000500000E+01  0.50000000000E+01 0. -1.
</event>
<event>
 4    1  0.4967105E-021  0.5000050E+01  0.7818608E-02  0.2136455E+00
        -11   -1    0    0    0    0  0.00000000000E+00  0.00000000000E+00  0.50000499739E+01  0.50000500000E+01  0.51100000000E-03 0. -1.
         11   -1    0    0    0    0 -0.00000000000E+00 -0.00000000000E+00 -0.50000499739E+01  0.50000500000E+01  0.51100000000E-03 0.  1.
         50    1    1    2    0    0 -0.89800570734E-02  0.14790899668E-01 -0.14162992691E-01  0.50000500000E+01  0.50000000000E+01 0.  0.
         50    1    1    2    0    0  0.89800570734E-02 -0.14790899668E-01  0.14162992691E-01  0.50000500000E+01  0.50000000000E+01 0.  0.
</event>
<event>
 4    1  0.4967105E-021  0.5000050E+01  0.7818608E-02  0.2136455E+00
        -11   -1    0    0    0    0  0.00000000000E+00  0.00000000000E+00  0.50000499739E+01  0.50000500000E+01  0.51100000000E-03 0.  1.
         11   -1    0    0    0    0 -0.00000000000E+00 -0.00000000000E+00 -0.50000499739E+01  0.50000500000E+01  0.51100000000E-03 0. -1.
         50    1    1    2    0    0 -0.73978073268E-02 -0.13010960832E-01  0.16612942093E-01  0.50000500000E+01  0.50000000000E+01 0.  1.
         50    1    1    2    0    0  0.73978073268E-02  0.13010960832E-01 -0.16612942093E-01  0.50000500000E+01  0.50000000000E+01 0.  1.
</event>
<event>
 4    1  0.4967105E-021  0.5000050E+01  0.7818608E-02  0.2136455E+00
        -11   -1    0    0    0    0  0.00000000000E+00  0.00000000000E+00  0.50000499739E+01  0.50000500000E+01  0.51100000000E-03 0. -1.
         11   -1    0    0    0    0 -0.00000000000E+00 -0.00000000000E+00 -0.50000499739E+01  0.50000500000E+01  0.51100000000E-03 0.  1.
         50    1    1    2    0    0 -0.26277845229E-02 -0.20221238048E-01  0.91759893366E-02  0.50000500000E+01  0.50000000000E+01 0. -1.
         50    1    1    2    0    0  0.26277845229E-02  0.20221238048E-01 -0.91759893366E-02  0.50000500000E+01  0.50000000000E+01 0. -1.
</event>
<event>
 4    1  0.4967105E-021  0.5000050E+01  0.7818608E-02  0.2136455E+00
        -11   -1    0    0    0    0  0.00000000000E+00  0.00000000000E+00  0.50000499739E+01  0.50000500000E+01  0.51100000000E-03 0.  1.
         11   -1    0    0    0    0 -0.00000000000E+00 -0.00000000000E+00 -0.50000499739E+01  0.50000500000E+01  0.51100000000E-03 0. -1.
         50    1    1    2    0    0 -0.32872680692E-02  0.19878041610E-01  0.96984447410E-02  0.50000500000E+01  0.50000000000E+01 0.  0.
         50    1    1    2    0    0  0.32872680692E-02 -0.19878041610E-01 -0.96984447410E-02  0.50000500000E+01  0.50000000000E+01 0.  0.
</event>
<event>
 4    1  0.4967105E-021  0.5000050E+01  0.7818608E-02  0.2136455E+00
        -11   -1    0    0    0    0  0.00000000000E+00  0.00000000000E+00  0.50000499739E+01  0.50000500000E+01  0.51100000000E-03 0.  1.
         11   -1    0    0    0    0 -0.00000000000E+00 -0.00000000000E+00 -0.50000499739E+01  0.50000500000E+01  0.51100000000E-03 0. -1.
         50    1    1    2    0    0  0.98062690513E-02  0.19839261978E-01  0.32005111271E-02  0.50000500000E+01  0.50000000000E+01 0. -1.
         50    1    1    2    0    0 -0.98062690513E-02 -0.19839261978E-01 -0.32005111271E-02  0.50000500000E+01  0.50000000000E+01 0.  1.
</event>
<event>
 4    1  0.4967105E-021  0.5000050E+01  0.7818608E-02  0.2136455E+00
        -11   -1    0    0    0    0  0.00000000000E+00  0.00000000000E+00  0.50000499739E+01  0.50000500000E+01  0.51100000000E-03 0. -1.
         11   -1    0    0    0    0 -0.00000000000E+00 -0.00000000000E+00 -0.50000499739E+01  0.50000500000E+01  0.51100000000E-03 0.  1.
         50    1    1    2    0    0  0.13007933832E-02  0.13685514307E-02  0.22280877531E-01  0.50000500000E+01  0.50000000000E+01 0. -1.
         50    1    1    2    0    0 -0.13007933832E-02 -0.13685514307E-02 -0.22280877531E-01  0.50000500000E+01  0.50000000000E+01 0.  0.
</event>
<event>
 4    1  0.4967105E-021  0.5000050E+01  0.7818608E-02  0.2136455E+00
        -11   -1    0    0    0    0  0.00000000000E+00  0.00000000000E+00  0.50000499739E+01  0.50000500000E+01  0.51100000000E-03 0. -1.
         11   -1    0    0    0    0 -0.00000000000E+00 -0.00000000000E+00 -0.50000499739E+01  0.50000500000E+01  0.51100000000E-03 0.  1.
         50    1    1    2    0    0 -0.11460597280E-01 -0.51504649859E-02  0.18496754321E-01  0.50000500000E+01  0.50000000000E+01 0.  0.
         50    1    1    2    0    0  0.11460597280E-01  0.51504649859E-02 -0.18496754321E-01  0.50000500000E+01  0.50000000000E+01 0.  0.
</event>
<event>
 4    1  0.4967105E-021  0.5000050E+01  0.7818608E-02  0.2136455E+00
        -11   -1    0    0    0    0  0.00000000000E+00  0.00000000000E+00  0.50000499739E+01  0.50000500000E+01  0.51100000000E-03 0. -1.
         11   -1    0    0    0    0 -0.00000000000E+00 -0.00000000000E+00 -0.50000499739E+01  0.50000500000E+01  0.51100000000E-03 0.  1.
         50    1    1    2    0    0  0.15664267587E-02  0.88968412547E-02 -0.20454706620E-01  0.50000500000E+01  0.50000000000E+01 0.  0.
         50    1    1    2    0    0 -0.15664267587E-02 -0.88968412547E-02  0.20454706620E-01  0.50000500000E+01  0.50000000000E+01 0.  0.
</event>
<event>
 4    1  0.4967105E-021  0.5000050E+01  0.7818608E-02  0.2136455E+00
        -11   -1    0    0    0    0  0.00000000000E+00  0.00000000000E+00  0.50000499739E+01  0.50000500000E+01  0.51100000000E-03 0.  1.
         11   -1    0    0    0    0 -0.00000000000E+00 -0.00000000000E+00 -0.50000499739E+01  0.50000500000E+01  0.51100000000E-03 0. -1.
         50    1    1    2    0    0  0.19954860714E-01 -0.99564728463E-02  0.16354456081E-02  0.50000500000E+01  0.50000000000E+01 0.  0.
         50    1    1    2    0    0 -0.19954860714E-01  0.99564728463E-02 -0.16354456081E-02  0.50000500000E+01  0.50000000000E+01 0. -1.
</event>
<event>
 4    1  0.4967105E-021  0.5000050E+01  0.7818608E-02  0.2136455E+00
        -11   -1    0    0    0    0  0.00000000000E+00  0.00000000000E+00  0.50000499739E+01  0.50000500000E+01  0.51100000000E-03 0. -1.
         11   -1    0    0    0    0 -0.00000000000E+00 -0.00000000000E+00 -0.50000499739E+01  0.50000500000E+01  0.51100000000E-03 0.  1.
         50    1    1    2    0    0 -0.12066733339E-02 -0.19745946067E-01 -0.10423245818E-01  0.50000500000E+01  0.50000000000E+01 0.  1.
         50    1    1    2    0    0  0.12066733339E-02  0.19745946067E-01  0.10423245818E-01  0.50000500000E+01  0.50000000000E+01 0.  1.
</event>
<event>
 4    1  0.4967105E-021  0.5000050E+01  0.7818608E-02  0.2136455E+00
        -11   -1    0    0    0    0  0.00000000000E+00  0.00000000000E+00  0.50000499739E+01  0.50000500000E+01  0.51100000000E-03 0.  1.
         11   -1    0    0    0    0 -0.00000000000E+00 -0.00000000000E+00 -0.50000499739E+01  0.50000500000E+01  0.51100000000E-03 0. -1.
         50    1    1    2    0    0  0.16328663182E-01  0.73897980342E-02  0.13370420476E-01  0.50000500000E+01  0.50000000000E+01 0.  1.
         50    1    1    2    0    0 -0.16328663182E-01 -0.73897980342E-02 -0.13370420476E-01  0.50000500000E+01  0.50000000000E+01 0. -1.
</event>
<event>
 4    1  0.4967105E-021  0.5000050E+01  0.7818608E-02  0.2136455E+00
        -11   -1    0    0    0    0  0.00000000000E+00  0.00000000000E+00  0.50000499739E+01  0.50000500000E+01  0.51100000000E-03 0. -1.
         11   -1    0    0    0    0 -0.00000000000E+00 -0.00000000000E+00 -0.50000499739E+01  0.50000500000E+01  0.51100000000E-03 0.  1.
         50    1    1    2    0    0  0.15463235938E-01  0.54744311497E-02  0.15196099431E-01  0.50000500000E+01  0.50000000000E+01 0. -1.
         50    1    1    2    0    0 -0.15463235938E-01 -0.54744311497E-02 -0.15196099431E-01  0.50000500000E+01  0.50000000000E+01 0.  1.
</event>
<event>
 4    1  0.4967105E-021  0.5000050E+01  0.7818608E-02  0.2136455E+00
        -11   -1    0    0    0    0  0.00000000000E+00  0.00000000000E+00  0.50000499739E+01  0.50000500000E+01  0.51100000000E-03 0. -1.
         11   -1    0    0    0    0 -0.00000000000E+00 -0.00000000000E+00 -0.50000499739E+01  0.50000500000E+01  0.51100000000E-03 0.  1.
         50    1    1    2    0    0  0.17880100920E-01  0.83017532381E-02 -0.10553927434E-01  0.50000500000E+01  0.50000000000E+01 0.  1.
         50    1    1    2    0    0 -0.17880100920E-01 -0.83017532381E-02  0.10553927434E-01  0.50000500000E+01  0.50000000000E+01 0. -1.
</event>
<event>
 4    1  0.4967105E-021  0.5000050E+01  0.7818608E-02  0.2136455E+00
        -11   -1    0    0    0    0  0.00000000000E+00  0.00000000000E+00  0.50000499739E+01  0.50000500000E+01  0.51100000000E-03 0. -1.
         11   -1    0    0    0    0 -0.00000000000E+00 -0.00000000000E+00 -0.50000499739E+01  0.50000500000E+01  0.51100000000E-03 0.  1.
         50    1    1    2    0    0 -0.20929749799E-01  0.77074096494E-02 -0.15949639028E-02  0.50000500000E+01  0.50000000000E+01 0. -1.
         50    1    1    2    0    0  0.20929749799E-01 -0.77074096494E-02  0.15949639028E-02  0.50000500000E+01  0.50000000000E+01 0.  0.
</event>
<event>
 4    1  0.4967105E-021  0.5000050E+01  0.7818608E-02  0.2136455E+00
        -11   -1    0    0    0    0  0.00000000000E+00  0.00000000000E+00  0.50000499739E+01  0.50000500000E+01  0.51100000000E-03 0.  1.
         11   -1    0    0    0    0 -0.00000000000E+00 -0.00000000000E+00 -0.50000499739E+01  0.50000500000E+01  0.51100000000E-03 0. -1.
         50    1    1    2    0    0  0.15774328285E-01  0.15754417603E-01  0.17237729396E-02  0.50000500000E+01  0.50000000000E+01 0. -1.
         50    1    1    2    0    0 -0.15774328285E-01 -0.15754417603E-01 -0.17237729396E-02  0.50000500000E+01  0.50000000000E+01 0.  0.
</event>
<event>
 4    1  0.4967105E-021  0.5000050E+01  0.7818608E-02  0.2136455E+00
        -11   -1    0    0    0    0  0.00000000000E+00  0.00000000000E+00  0.50000499739E+01  0.50000500000E+01  0.51100000000E-03 0.  1.
         11   -1    0    0    0    0 -0.00000000000E+00 -0.00000000000E+00 -0.50000499739E+01  0.50000500000E+01  0.51100000000E-03 0. -1.
         50    1    1    2    0    0 -0.28423191673E-02 -0.91906411703E-02  0.20185535332E-01  0.50000500000E+01  0.50000000000E+01 0.  0.
         50    1    1    2    0    0  0.28423191673E-02  0.91906411703E-02 -0.20185535332E-01  0.50000500000E+01  0.50000000000E+01 0. -1.
</event>
<event>
 4    1  0.4967105E-021  0.5000050E+01  0.7818608E-02  0.2136455E+00
        -11   -1    0    0    0    0  0.00000000000E+00  0.00000000000E+00  0.50000499739E+01  0.50000500000E+01  0.51100000000E-03 0.  1.
         11   -1    0    0    0    0 -0.00000000000E+00 -0.00000000000E+00 -0.50000499739E+01  0.50000500000E+01  0.51100000000E-03 0. -1.
         50    1    1    2    0    0 -0.31201942775E-02 -0.20487261542E-01 -0.83987500378E-02  0.50000500000E+01  0.50000000000E+01 0. -1.
         50    1    1    2    0    0  0.31201942775E-02  0.20487261542E-01  0.83987500378E-02  0.50000500000E+01  0.50000000000E+01 0.  1.
</event>
<event>
 4    1  0.4967105E-021  0.5000050E+01  0.7818608E-02  0.2136455E+00
        -11   -1    0    0    0    0  0.00000000000E+00  0.00000000000E+00  0.50000499739E+01  0.50000500000E+01  0.51100000000E-03 0.  1.
         11   -1    0    0    0    0 -0.00000000000E+00 -0.00000000000E+00 -0.50000499739E+01  0.50000500000E+01  0.51100000000E-03 0. -1.
         50    1    1    2    0    0 -0.11615325609E-01  0.13998583428E-01  0.13004859592E-01  0.50000500000E+01  0.50000000000E+01 0. -1.
         50    1    1    2    0    0  0.11615325609E-01 -0.13998583428E-01 -0.13004859592E-01  0.50000500000E+01  0.50000000000E+01 0.  0.
</event>
<event>
 4    1  0.4967105E-021  0.5000050E+01  0.7818608E-02  0.2136455E+00
        -11   -1    0    0    0    0  0.00000000000E+00  0.00000000000E+00  0.50000499739E+01  0.50000500000E+01  0.51100000000E-03 0.  1.
         11   -1    0    0    0    0 -0.00000000000E+00 -0.00000000000E+00 -0.50000499739E+01  0.50000500000E+01  0.51100000000E-03 0. -1.
         50    1    1    2    0    0 -0.17062363996E-01 -0.14428461070E-01  0.83531193465E-03  0.50000500000E+01  0.50000000000E+01 0. -1.
         50    1    1    2    0    0  0.17062363996E-01  0.14428461070E-01 -0.83531193465E-03  0.50000500000E+01  0.50000000000E+01 0.  0.
</event>
<event>
 4    1  0.4967105E-021  0.5000050E+01  0.7818608E-02  0.2136455E+00
        -11   -1    0    0    0    0  0.00000000000E+00  0.00000000000E+00  0.50000499739E+01  0.50000500000E+01  0.51100000000E-03 0.  1.
         11   -1    0    0    0    0 -0.00000000000E+00 -0.00000000000E+00 -0.50000499739E+01  0.50000500000E+01  0.51100000000E-03 0. -1.
         50    1    1    2    0    0  0.12622902929E-01  0.12914893244E-01 -0.13185990829E-01  0.50000500000E+01  0.50000000000E+01 0.  1.
         50    1    1    2    0    0 -0.12622902929E-01 -0.12914893244E-01  0.13185990829E-01  0.50000500000E+01  0.50000000000E+01 0. -1.
</event>
<event>
 4    1  0.4967105E-021  0.5000050E+01  0.7818608E-02  0.2136455E+00
        -11   -1    0    0    0    0  0.00000000000E+00  0.00000000000E+00  0.50000499739E+01  0.50000500000E+01  0.51100000000E-03 0.  1.
         11   -1    0    0    0    0 -0.00000000000E+00 -0.00000000000E+00 -0.50000499739E+01  0.50000500000E+01  0.51100000000E-03 0. -1.
         50    1    1    2    0    0  0.15624497600E-02 -0.21029992763E-01  0.74364410268E-02  0.50000500000E+01  0.50000000000E+01 0.  1.
         50    1    1    2    0    0 -0.15624497600E-02  0.21029992763E-01 -0.74364410268E-02  0.50000500000E+01  0.50000000000E+01 0. -1.
</event>
<event>
 4    1  0.4967105E-021  0.5000050E+01  0.7818608E-02  0.2136455E+00
        -11   -1    0    0    0    0  0.00000000000E+00  0.00000000000E+00  0.50000499739E+01  0.50000500000E+01  0.51100000000E-03 0. -1.
         11   -1    0    0    0    0 -0.00000000000E+00 -0.00000000000E+00 -0.50000499739E+01  0.50000500000E+01  0.51100000000E-03 0.  1.
         50    1    1    2    0    0 -0.18782150820E-01 -0.64283053114E-02  0.10291268211E-01  0.50000500000E+01  0.50000000000E+01 0.  0.
         50    1    1    2    0    0  0.18782150820E-01  0.64283053114E-02 -0.10291268211E-01  0.50000500000E+01  0.50000000000E+01 0.  0.
</event>
<event>
 4    1  0.4967105E-021  0.5000050E+01  0.7818608E-02  0.2136455E+00
        -11   -1    0    0    0    0  0.00000000000E+00  0.00000000000E+00  0.50000499739E+01  0.50000500000E+01  0.51100000000E-03 0.  1.
         11   -1    0    0    0    0 -0.00000000000E+00 -0.00000000000E+00 -0.50000499739E+01  0.50000500000E+01  0.51100000000E-03 0. -1.
         50    1    1    2    0    0  0.21688532560E-01  0.86667192112E-03  0.53720512999E-02  0.50000500000E+01  0.50000000000E+01 0.  1.
         50    1    1    2    0    0 -0.21688532560E-01 -0.86667192112E-03 -0.53720512999E-02  0.50000500000E+01  0.50000000000E+01 0.  0.
</event>
<event>
 4    1  0.4967105E-021  0.5000050E+01  0.7818608E-02  0.2136455E+00
        -11   -1    0    0    0    0  0.00000000000E+00  0.00000000000E+00  0.50000499739E+01  0.50000500000E+01  0.51100000000E-03 0. -1.
         11   -1    0    0    0    0 -0.00000000000E+00 -0.00000000000E+00 -0.50000499739E+01  0.50000500000E+01  0.51100000000E-03 0.  1.
         50    1    1    2    0    0  0.12336875323E-01  0.15009126847E-01 -0.11069332344E-01  0.50000500000E+01  0.50000000000E+01 0. -1.
         50    1    1    2    0    0 -0.12336875323E-01 -0.15009126847E-01  0.11069332344E-01  0.50000500000E+01  0.50000000000E+01 0.  0.
</event>
<event>
 4    1  0.4967105E-021  0.5000050E+01  0.7818608E-02  0.2136455E+00
        -11   -1    0    0    0    0  0.00000000000E+00  0.00000000000E+00  0.50000499739E+01  0.50000500000E+01  0.51100000000E-03 0. -1.
         11   -1    0    0    0    0 -0.00000000000E+00 -0.00000000000E+00 -0.50000499739E+01  0.50000500000E+01  0.51100000000E-03 0.  1.
         50    1    1    2    0    0  0.13138806159E-01 -0.15482414644E-01 -0.93631783870E-02  0.50000500000E+01  0.50000000000E+01 0.  0.
         50    1    1    2    0    0 -0.13138806159E-01  0.15482414644E-01  0.93631783870E-02  0.50000500000E+01  0.50000000000E+01 0.  1.
</event>
<event>
 4    1  0.4967105E-021  0.5000050E+01  0.7818608E-02  0.2136455E+00
        -11   -1    0    0    0    0  0.00000000000E+00  0.00000000000E+00  0.50000499739E+01  0.50000500000E+01  0.51100000000E-03 0.  1.
         11   -1    0    0    0    0 -0.00000000000E+00 -0.00000000000E+00 -0.50000499739E+01  0.50000500000E+01  0.51100000000E-03 0. -1.
         50    1    1    2    0    0  0.49536767438E-02  0.52123861822E-02 -0.21172969017E-01  0.50000500000E+01  0.50000000000E+01 0. -1.
         50    1    1    2    0    0 -0.49536767438E-02 -0.52123861822E-02  0.21172969017E-01  0.50000500000E+01  0.50000000000E+01 0.  0.
</event>
<event>
 4    1  0.4967105E-021  0.5000050E+01  0.7818608E-02  0.2136455E+00
        -11   -1    0    0    0    0  0.00000000000E+00  0.00000000000E+00  0.50000499739E+01  0.50000500000E+01  0.51100000000E-03 0. -1.
         11   -1    0    0    0    0 -0.00000000000E+00 -0.00000000000E+00 -0.50000499739E+01  0.50000500000E+01  0.51100000000E-03 0.  1.
         50    1    1    2    0    0 -0.22021894132E-01  0.38177846702E-02 -0.68058728724E-03  0.50000500000E+01  0.50000000000E+01 0. -1.
         50    1    1    2    0    0  0.22021894132E-01 -0.38177846702E-02  0.68058728724E-03  0.50000500000E+01  0.50000000000E+01 0.  1.
</event>
<event>
 4    1  0.4967105E-021  0.5000050E+01  0.7818608E-02  0.2136455E+00
        -11   -1    0    0    0    0  0.00000000000E+00  0.00000000000E+00  0.50000499739E+01  0.50000500000E+01  0.51100000000E-03 0.  1.
         11   -1    0    0    0    0 -0.00000000000E+00 -0.00000000000E+00 -0.50000499739E+01  0.50000500000E+01  0.51100000000E-03 0. -1.
         50    1    1    2    0    0 -0.12016786139E-02  0.21630407965E-01 -0.55393067966E-02  0.50000500000E+01  0.50000000000E+01 0. -1.
         50    1    1    2    0    0  0.12016786139E-02 -0.21630407965E-01  0.55393067966E-02  0.50000500000E+01  0.50000000000E+01 0.  1.
</event>
<event>
 4    1  0.4967105E-021  0.5000050E+01  0.7818608E-02  0.2136455E+00
        -11   -1    0    0    0    0  0.00000000000E+00  0.00000000000E+00  0.50000499739E+01  0.50000500000E+01  0.51100000000E-03 0. -1.
         11   -1    0    0    0    0 -0.00000000000E+00 -0.00000000000E+00 -0.50000499739E+01  0.50000500000E+01  0.51100000000E-03 0.  1.
         50    1    1    2    0    0  0.57461367504E-02  0.19368937444E-01 -0.95827279374E-02  0.50000500000E+01  0.50000000000E+01 0.  0.
         50    1    1    2    0    0 -0.57461367504E-02 -0.19368937444E-01  0.95827279374E-02  0.50000500000E+01  0.50000000000E+01 0.  1.
</event>
<event>
 4    1  0.4967105E-021  0.5000050E+01  0.7818608E-02  0.2136455E+00
        -11   -1    0    0    0    0  0.00000000000E+00  0.00000000000E+00  0.50000499739E+01  0.50000500000E+01  0.51100000000E-03 0.  1.
         11   -1    0    0    0    0 -0.00000000000E+00 -0.00000000000E+00 -0.50000499739E+01  0.50000500000E+01  0.51100000000E-03 0. -1.
         50    1    1    2    0    0  0.14369485284E-01 -0.55312334067E-02  0.16214988426E-01  0.50000500000E+01  0.50000000000E+01 0. -1.
         50    1    1    2    0    0 -0.14369485284E-01  0.55312334067E-02 -0.16214988426E-01  0.50000500000E+01  0.50000000000E+01 0. -1.
</event>
<event>
 4    1  0.4967105E-021  0.5000050E+01  0.7818608E-02  0.2136455E+00
        -11   -1    0    0    0    0  0.00000000000E+00  0.00000000000E+00  0.50000499739E+01  0.50000500000E+01  0.51100000000E-03 0.  1.
         11   -1    0    0    0    0 -0.00000000000E+00 -0.00000000000E+00 -0.50000499739E+01  0.50000500000E+01  0.51100000000E-03 0. -1.
         50    1    1    2    0    0  0.83725955152E-02  0.18814305673E-01 -0.87134405595E-02  0.50000500000E+01  0.50000000000E+01 0.  1.
         50    1    1    2    0    0 -0.83725955152E-02 -0.18814305673E-01  0.87134405595E-02  0.50000500000E+01  0.50000000000E+01 0.  0.
</event>
<event>
 4    1  0.4967105E-021  0.5000050E+01  0.7818608E-02  0.2136455E+00
        -11   -1    0    0    0    0  0.00000000000E+00  0.00000000000E+00  0.50000499739E+01  0.50000500000E+01  0.51100000000E-03 0. -1.
         11   -1    0    0    0    0 -0.00000000000E+00 -0.00000000000E+00 -0.50000499739E+01  0.50000500000E+01  0.51100000000E-03 0.  1.
         50    1    1    2    0    0 -0.65926007554E-02 -0.19804307002E-01 -0.80205697711E-02  0.50000500000E+01  0.50000000000E+01 0. -1.
         50    1    1    2    0    0  0.65926007554E-02  0.19804307002E-01  0.80205697711E-02  0.50000500000E+01  0.50000000000E+01 0.  0.
</event>
<event>
 4    1  0.4967105E-021  0.5000050E+01  0.7818608E-02  0.2136455E+00
        -11   -1    0    0    0    0  0.00000000000E+00  0.00000000000E+00  0.50000499739E+01  0.50000500000E+01  0.51100000000E-03 0.  1.
         11   -1    0    0    0    0 -0.00000000000E+00 -0.00000000000E+00 -0.50000499739E+01  0.50000500000E+01  0.51100000000E-03 0. -1.
         50    1    1    2    0    0  0.17839001893E-01 -0.95119102343E-02 -0.95548979669E-02  0.50000500000E+01  0.50000000000E+01 0.  1.
         50    1    1    2    0    0 -0.17839001893E-01  0.95119102343E-02  0.95548979669E-02  0.50000500000E+01  0.50000000000E+01 0.  0.
</event>
<event>
 4    1  0.4967105E-021  0.5000050E+01  0.7818608E-02  0.2136455E+00
        -11   -1    0    0    0    0  0.00000000000E+00  0.00000000000E+00  0.50000499739E+01  0.50000500000E+01  0.51100000000E-03 0. -1.
         11   -1    0    0    0    0 -0.00000000000E+00 -0.00000000000E+00 -0.50000499739E+01  0.50000500000E+01  0.51100000000E-03 0.  1.
         50    1    1    2    0    0  0.21360852038E-02  0.14758260691E-01 -0.16662334212E-01  0.50000500000E+01  0.50000000000E+01 0.  0.
         50    1    1    2    0    0 -0.21360852038E-02 -0.14758260691E-01  0.16662334212E-01  0.50000500000E+01  0.50000000000E+01 0.  0.
</event>
<event>
 4    1  0.4967105E-021  0.5000050E+01  0.7818608E-02  0.2136455E+00
        -11   -1    0    0    0    0  0.00000000000E+00  0.00000000000E+00  0.50000499739E+01  0.50000500000E+01  0.51100000000E-03 0. -1.
         11   -1    0    0    0    0 -0.00000000000E+00 -0.00000000000E+00 -0.50000499739E+01  0.50000500000E+01  0.51100000000E-03 0.  1.
         50    1    1    2    0    0 -0.82524786406E-02 -0.20577301453E-01 -0.29109725542E-02  0.50000500000E+01  0.50000000000E+01 0. -1.
         50    1    1    2    0    0  0.82524786406E-02  0.20577301453E-01  0.29109725542E-02  0.50000500000E+01  0.50000000000E+01 0.  1.
</event>
<event>
 4    1  0.4967105E-021  0.5000050E+01  0.7818608E-02  0.2136455E+00
        -11   -1    0    0    0    0  0.00000000000E+00  0.00000000000E+00  0.50000499739E+01  0.50000500000E+01  0.51100000000E-03 0.  1.
         11   -1    0    0    0    0 -0.00000000000E+00 -0.00000000000E+00 -0.50000499739E+01  0.50000500000E+01  0.51100000000E-03 0. -1.
         50    1    1    2    0    0  0.12220301158E-01 -0.84003985189E-03  0.18707246528E-01  0.50000500000E+01  0.50000000000E+01 0.  0.
         50    1    1    2    0    0 -0.12220301158E-01  0.84003985189E-03 -0.18707246528E-01  0.50000500000E+01  0.50000000000E+01 0. -1.
</event>
<event>
 4    1  0.4967105E-021  0.5000050E+01  0.7818608E-02  0.2136455E+00
        -11   -1    0    0    0    0  0.00000000000E+00  0.00000000000E+00  0.50000499739E+01  0.50000500000E+01  0.51100000000E-03 0.  1.
         11   -1    0    0    0    0 -0.00000000000E+00 -0.00000000000E+00 -0.50000499739E+01  0.50000500000E+01  0.51100000000E-03 0. -1.
         50    1    1    2    0    0 -0.94653751088E-02 -0.19546032175E-01  0.53255798050E-02  0.50000500000E+01  0.50000000000E+01 0.  0.
         50    1    1    2    0    0  0.94653751088E-02  0.19546032175E-01 -0.53255798050E-02  0.50000500000E+01  0.50000000000E+01 0.  1.
</event>
<event>
 4    1  0.4967105E-021  0.5000050E+01  0.7818608E-02  0.2136455E+00
        -11   -1    0    0    0    0  0.00000000000E+00  0.00000000000E+00  0.50000499739E+01  0.50000500000E+01  0.51100000000E-03 0.  1.
         11   -1    0    0    0    0 -0.00000000000E+00 -0.00000000000E+00 -0.50000499739E+01  0.50000500000E+01  0.51100000000E-03 0. -1.
         50    1    1    2    0    0 -0.21579125260E-01 -0.50194084649E-03  0.58388276544E-02  0.50000500000E+01  0.50000000000E+01 0.  1.
         50    1    1    2    0    0  0.21579125260E-01  0.50194084649E-03 -0.58388276544E-02  0.50000500000E+01  0.50000000000E+01 0. -1.
</event>
<event>
 4    1  0.4967105E-021  0.5000050E+01  0.7818608E-02  0.2136455E+00
        -11   -1    0    0    0    0  0.00000000000E+00  0.00000000000E+00  0.50000499739E+01  0.50000500000E+01  0.51100000000E-03 0.  1.
         11   -1    0    0    0    0 -0.00000000000E+00 -0.00000000000E+00 -0.50000499739E+01  0.50000500000E+01  0.51100000000E-03 0. -1.
         50    1    1    2    0    0 -0.20508569406E-01 -0.77170411914E-02 -0.44551494012E-02  0.50000500000E+01  0.50000000000E+01 0.  0.
         50    1    1    2    0    0  0.20508569406E-01  0.77170411914E-02  0.44551494012E-02  0.50000500000E+01  0.50000000000E+01 0. -1.
</event>
<event>
 4    1  0.4967105E-021  0.5000050E+01  0.7818608E-02  0.2136455E+00
        -11   -1    0    0    0    0  0.00000000000E+00  0.00000000000E+00  0.50000499739E+01  0.50000500000E+01  0.51100000000E-03 0.  1.
         11   -1    0    0    0    0 -0.00000000000E+00 -0.00000000000E+00 -0.50000499739E+01  0.50000500000E+01  0.51100000000E-03 0. -1.
         50    1    1    2    0    0 -0.68378164245E-02  0.20715430304E-01  0.49109789109E-02  0.50000500000E+01  0.50000000000E+01 0. -1.
         50    1    1    2    0    0  0.68378164245E-02 -0.20715430304E-01 -0.49109789109E-02  0.50000500000E+01  0.50000000000E+01 0.  1.
</event>
<event>
 4    1  0.4967105E-021  0.5000050E+01  0.7818608E-02  0.2136455E+00
        -11   -1    0    0    0    0  0.00000000000E+00  0.00000000000E+00  0.50000499739E+01  0.50000500000E+01  0.51100000000E-03 0.  1.
         11   -1    0    0    0    0 -0.00000000000E+00 -0.00000000000E+00 -0.50000499739E+01  0.50000500000E+01  0.51100000000E-03 0. -1.
         50    1    1    2    0    0 -0.19902752078E-01  0.92391404834E-02  0.43036313556E-02  0.50000500000E+01  0.50000000000E+01 0.  0.
         50    1    1    2    0    0  0.19902752078E-01 -0.92391404834E-02 -0.43036313556E-02  0.50000500000E+01  0.50000000000E+01 0.  1.
</event>
<event>
 4    1  0.4967105E-021  0.5000050E+01  0.7818608E-02  0.2136455E+00
        -11   -1    0    0    0    0  0.00000000000E+00  0.00000000000E+00  0.50000499739E+01  0.50000500000E+01  0.51100000000E-03 0.  1.
         11   -1    0    0    0    0 -0.00000000000E+00 -0.00000000000E+00 -0.50000499739E+01  0.50000500000E+01  0.51100000000E-03 0. -1.
         50    1    1    2    0    0 -0.10020828942E-01 -0.17985509638E-01  0.87239286086E-02  0.50000500000E+01  0.50000000000E+01 0.  0.
         50    1    1    2    0    0  0.10020828942E-01  0.17985509638E-01 -0.87239286086E-02  0.50000500000E+01  0.50000000000E+01 0.  0.
</event>
<event>
 4    1  0.4967105E-021  0.5000050E+01  0.7818608E-02  0.2136455E+00
        -11   -1    0    0    0    0  0.00000000000E+00  0.00000000000E+00  0.50000499739E+01  0.50000500000E+01  0.51100000000E-03 0. -1.
         11   -1    0    0    0    0 -0.00000000000E+00 -0.00000000000E+00 -0.50000499739E+01  0.50000500000E+01  0.51100000000E-03 0.  1.
         50    1    1    2    0    0  0.38359129995E-02  0.13114518735E-01  0.17700216660E-01  0.50000500000E+01  0.50000000000E+01 0.  0.
         50    1    1    2    0    0 -0.38359129995E-02 -0.13114518735E-01 -0.17700216660E-01  0.50000500000E+01  0.50000000000E+01 0.  0.
</event>
<event>
 4    1  0.4967105E-021  0.5000050E+01  0.7818608E-02  0.2136455E+00
        -11   -1    0    0    0    0  0.00000000000E+00  0.00000000000E+00  0.50000499739E+01  0.50000500000E+01  0.51100000000E-03 0. -1.
         11   -1    0    0    0    0 -0.00000000000E+00 -0.00000000000E+00 -0.50000499739E+01  0.50000500000E+01  0.51100000000E-03 0.  1.
         50    1    1    2    0    0  0.10896152427E-01  0.18075184311E-01 -0.73867499216E-02  0.50000500000E+01  0.50000000000E+01 0. -1.
         50    1    1    2    0    0 -0.10896152427E-01 -0.18075184311E-01  0.73867499216E-02  0.50000500000E+01  0.50000000000E+01 0.  0.
</event>
<event>
 4    1  0.4967105E-021  0.5000050E+01  0.7818608E-02  0.2136455E+00
        -11   -1    0    0    0    0  0.00000000000E+00  0.00000000000E+00  0.50000499739E+01  0.50000500000E+01  0.51100000000E-03 0.  1.
         11   -1    0    0    0    0 -0.00000000000E+00 -0.00000000000E+00 -0.50000499739E+01  0.50000500000E+01  0.51100000000E-03 0. -1.
         50    1    1    2    0    0  0.18246646221E-01 -0.10229853772E-01  0.79001578147E-02  0.50000500000E+01  0.50000000000E+01 0.  1.
         50    1    1    2    0    0 -0.18246646221E-01  0.10229853772E-01 -0.79001578147E-02  0.50000500000E+01  0.50000000000E+01 0. -1.
</event>
<event>
 4    1  0.4967105E-021  0.5000050E+01  0.7818608E-02  0.2136455E+00
        -11   -1    0    0    0    0  0.00000000000E+00  0.00000000000E+00  0.50000499739E+01  0.50000500000E+01  0.51100000000E-03 0.  1.
         11   -1    0    0    0    0 -0.00000000000E+00 -0.00000000000E+00 -0.50000499739E+01  0.50000500000E+01  0.51100000000E-03 0. -1.
         50    1    1    2    0    0 -0.41407491304E-02 -0.16684603688E-01 -0.14299674696E-01  0.50000500000E+01  0.50000000000E+01 0. -1.
         50    1    1    2    0    0  0.41407491304E-02  0.16684603688E-01  0.14299674696E-01  0.50000500000E+01  0.50000000000E+01 0. -1.
</event>
<event>
 4    1  0.4967105E-021  0.5000050E+01  0.7818608E-02  0.2136455E+00
        -11   -1    0    0    0    0  0.00000000000E+00  0.00000000000E+00  0.50000499739E+01  0.50000500000E+01  0.51100000000E-03 0. -1.
         11   -1    0    0    0    0 -0.00000000000E+00 -0.00000000000E+00 -0.50000499739E+01  0.50000500000E+01  0.51100000000E-03 0.  1.
         50    1    1    2    0    0 -0.45028909037E-03 -0.16698458022E-01  0.14864765031E-01  0.50000500000E+01  0.50000000000E+01 0. -1.
         50    1    1    2    0    0  0.45028909037E-03  0.16698458022E-01 -0.14864765031E-01  0.50000500000E+01  0.50000000000E+01 0.  1.
</event>
<event>
 4    1  0.4967105E-021  0.5000050E+01  0.7818608E-02  0.2136455E+00
        -11   -1    0    0    0    0  0.00000000000E+00  0.00000000000E+00  0.50000499739E+01  0.50000500000E+01  0.51100000000E-03 0.  1.
         11   -1    0    0    0    0 -0.00000000000E+00 -0.00000000000E+00 -0.50000499739E+01  0.50000500000E+01  0.51100000000E-03 0. -1.
         50    1    1    2    0    0 -0.99618689253E-02  0.73289646618E-02 -0.18629276543E-01  0.50000500000E+01  0.50000000000E+01 0. -1.
         50    1    1    2    0    0  0.99618689253E-02 -0.73289646618E-02  0.18629276543E-01  0.50000500000E+01  0.50000000000E+01 0.  1.
</event>
<event>
 4    1  0.4967105E-021  0.5000050E+01  0.7818608E-02  0.2136455E+00
        -11   -1    0    0    0    0  0.00000000000E+00  0.00000000000E+00  0.50000499739E+01  0.50000500000E+01  0.51100000000E-03 0. -1.
         11   -1    0    0    0    0 -0.00000000000E+00 -0.00000000000E+00 -0.50000499739E+01  0.50000500000E+01  0.51100000000E-03 0.  1.
         50    1    1    2    0    0 -0.13882412175E-01  0.57073082056E-02  0.16574310400E-01  0.50000500000E+01  0.50000000000E+01 0. -1.
         50    1    1    2    0    0  0.13882412175E-01 -0.57073082056E-02 -0.16574310400E-01  0.50000500000E+01  0.50000000000E+01 0.  1.
</event>
<event>
 4    1  0.4967105E-021  0.5000050E+01  0.7818608E-02  0.2136455E+00
        -11   -1    0    0    0    0  0.00000000000E+00  0.00000000000E+00  0.50000499739E+01  0.50000500000E+01  0.51100000000E-03 0. -1.
         11   -1    0    0    0    0 -0.00000000000E+00 -0.00000000000E+00 -0.50000499739E+01  0.50000500000E+01  0.51100000000E-03 0.  1.
         50    1    1    2    0    0  0.17155019722E-01  0.91684901023E-02 -0.11029351186E-01  0.50000500000E+01  0.50000000000E+01 0.  1.
         50    1    1    2    0    0 -0.17155019722E-01 -0.91684901023E-02  0.11029351186E-01  0.50000500000E+01  0.50000000000E+01 0. -1.
</event>
<event>
 4    1  0.4967105E-021  0.5000050E+01  0.7818608E-02  0.2136455E+00
        -11   -1    0    0    0    0  0.00000000000E+00  0.00000000000E+00  0.50000499739E+01  0.50000500000E+01  0.51100000000E-03 0.  1.
         11   -1    0    0    0    0 -0.00000000000E+00 -0.00000000000E+00 -0.50000499739E+01  0.50000500000E+01  0.51100000000E-03 0. -1.
         50    1    1    2    0    0  0.30959722196E-02  0.11945464703E-01 -0.18647341072E-01  0.50000500000E+01  0.50000000000E+01 0. -1.
         50    1    1    2    0    0 -0.30959722196E-02 -0.11945464703E-01  0.18647341072E-01  0.50000500000E+01  0.50000000000E+01 0.  1.
</event>
<event>
 4    1  0.4967105E-021  0.5000050E+01  0.7818608E-02  0.2136455E+00
        -11   -1    0    0    0    0  0.00000000000E+00  0.00000000000E+00  0.50000499739E+01  0.50000500000E+01  0.51100000000E-03 0. -1.
         11   -1    0    0    0    0 -0.00000000000E+00 -0.00000000000E+00 -0.50000499739E+01  0.50000500000E+01  0.51100000000E-03 0.  1.
         50    1    1    2    0    0  0.13892755927E-01 -0.17434676047E-01  0.17395125379E-02  0.50000500000E+01  0.50000000000E+01 0.  1.
         50    1    1    2    0    0 -0.13892755927E-01  0.17434676047E-01 -0.17395125379E-02  0.50000500000E+01  0.50000000000E+01 0. -1.
</event>
<event>
 4    1  0.4967105E-021  0.5000050E+01  0.7818608E-02  0.2136455E+00
        -11   -1    0    0    0    0  0.00000000000E+00  0.00000000000E+00  0.50000499739E+01  0.50000500000E+01  0.51100000000E-03 0.  1.
         11   -1    0    0    0    0 -0.00000000000E+00 -0.00000000000E+00 -0.50000499739E+01  0.50000500000E+01  0.51100000000E-03 0. -1.
         50    1    1    2    0    0 -0.18559919948E-01  0.12383164555E-01  0.14795631502E-02  0.50000500000E+01  0.50000000000E+01 0.  0.
         50    1    1    2    0    0  0.18559919948E-01 -0.12383164555E-01 -0.14795631502E-02  0.50000500000E+01  0.50000000000E+01 0.  1.
</event>
<event>
 4    1  0.4967105E-021  0.5000050E+01  0.7818608E-02  0.2136455E+00
        -11   -1    0    0    0    0  0.00000000000E+00  0.00000000000E+00  0.50000499739E+01  0.50000500000E+01  0.51100000000E-03 0. -1.
         11   -1    0    0    0    0 -0.00000000000E+00 -0.00000000000E+00 -0.50000499739E+01  0.50000500000E+01  0.51100000000E-03 0.  1.
         50    1    1    2    0    0  0.78848398299E-02 -0.35131239833E-02 -0.20627403150E-01  0.50000500000E+01  0.50000000000E+01 0.  1.
         50    1    1    2    0    0 -0.78848398299E-02  0.35131239833E-02  0.20627403150E-01  0.50000500000E+01  0.50000000000E+01 0.  0.
</event>
<event>
 4    1  0.4967105E-021  0.5000050E+01  0.7818608E-02  0.2136455E+00
        -11   -1    0    0    0    0  0.00000000000E+00  0.00000000000E+00  0.50000499739E+01  0.50000500000E+01  0.51100000000E-03 0. -1.
         11   -1    0    0    0    0 -0.00000000000E+00 -0.00000000000E+00 -0.50000499739E+01  0.50000500000E+01  0.51100000000E-03 0.  1.
         50    1    1    2    0    0 -0.15562175417E-01  0.14950180412E-01  0.58577557059E-02  0.50000500000E+01  0.50000000000E+01 0.  0.
         50    1    1    2    0    0  0.15562175417E-01 -0.14950180412E-01 -0.58577557059E-02  0.50000500000E+01  0.50000000000E+01 0. -1.
</event>
<event>
 4    1  0.4967105E-021  0.5000050E+01  0.7818608E-02  0.2136455E+00
        -11   -1    0    0    0    0  0.00000000000E+00  0.00000000000E+00  0.50000499739E+01  0.50000500000E+01  0.51100000000E-03 0. -1.
         11   -1    0    0    0    0 -0.00000000000E+00 -0.00000000000E+00 -0.50000499739E+01  0.50000500000E+01  0.51100000000E-03 0.  1.
         50    1    1    2    0    0  0.14082149721E-01  0.10220958709E-01  0.14043773079E-01  0.50000500000E+01  0.50000000000E+01 0. -1.
         50    1    1    2    0    0 -0.14082149721E-01 -0.10220958709E-01 -0.14043773079E-01  0.50000500000E+01  0.50000000000E+01 0.  1.
</event>
<event>
 4    1  0.4967105E-021  0.5000050E+01  0.7818608E-02  0.2136455E+00
        -11   -1    0    0    0    0  0.00000000000E+00  0.00000000000E+00  0.50000499739E+01  0.50000500000E+01  0.51100000000E-03 0.  1.
         11   -1    0    0    0    0 -0.00000000000E+00 -0.00000000000E+00 -0.50000499739E+01  0.50000500000E+01  0.51100000000E-03 0. -1.
         50    1    1    2    0    0  0.79064874632E-02 -0.20909595512E-01 -0.52798818586E-03  0.50000500000E+01  0.50000000000E+01 0.  1.
         50    1    1    2    0    0 -0.79064874632E-02  0.20909595512E-01  0.52798818586E-03  0.50000500000E+01  0.50000000000E+01 0. -1.
</event>
<event>
 4    1  0.4967105E-021  0.5000050E+01  0.7818608E-02  0.2136455E+00
        -11   -1    0    0    0    0  0.00000000000E+00  0.00000000000E+00  0.50000499739E+01  0.50000500000E+01  0.51100000000E-03 0. -1.
         11   -1    0    0    0    0 -0.00000000000E+00 -0.00000000000E+00 -0.50000499739E+01  0.50000500000E+01  0.51100000000E-03 0.  1.
         50    1    1    2    0    0 -0.21746924554E-01  0.41656735682E-02  0.31178415894E-02  0.50000500000E+01  0.50000000000E+01 0.  1.
         50    1    1    2    0    0  0.21746924554E-01 -0.41656735682E-02 -0.31178415894E-02  0.50000500000E+01  0.50000000000E+01 0.  0.
</event>
<event>
 4    1  0.4967105E-021  0.5000050E+01  0.7818608E-02  0.2136455E+00
        -11   -1    0    0    0    0  0.00000000000E+00  0.00000000000E+00  0.50000499739E+01  0.50000500000E+01  0.51100000000E-03 0. -1.
         11   -1    0    0    0    0 -0.00000000000E+00 -0.00000000000E+00 -0.50000499739E+01  0.50000500000E+01  0.51100000000E-03 0.  1.
         50    1    1    2    0    0  0.32640962989E-02 -0.21810771937E-01 -0.36930208322E-02  0.50000500000E+01  0.50000000000E+01 0. -1.
         50    1    1    2    0    0 -0.32640962989E-02  0.21810771937E-01  0.36930208322E-02  0.50000500000E+01  0.50000000000E+01 0.  0.
</event>
<event>
 4    1  0.4967105E-021  0.5000050E+01  0.7818608E-02  0.2136455E+00
        -11   -1    0    0    0    0  0.00000000000E+00  0.00000000000E+00  0.50000499739E+01  0.50000500000E+01  0.51100000000E-03 0. -1.
         11   -1    0    0    0    0 -0.00000000000E+00 -0.00000000000E+00 -0.50000499739E+01  0.50000500000E+01  0.51100000000E-03 0.  1.
         50    1    1    2    0    0 -0.21275909063E-01 -0.10896692412E-02 -0.67934390759E-02  0.50000500000E+01  0.50000000000E+01 0.  1.
         50    1    1    2    0    0  0.21275909063E-01  0.10896692412E-02  0.67934390759E-02  0.50000500000E+01  0.50000000000E+01 0. -1.
</event>
<event>
 4    1  0.4967105E-021  0.5000050E+01  0.7818608E-02  0.2136455E+00
        -11   -1    0    0    0    0  0.00000000000E+00  0.00000000000E+00  0.50000499739E+01  0.50000500000E+01  0.51100000000E-03 0. -1.
         11   -1    0    0    0    0 -0.00000000000E+00 -0.00000000000E+00 -0.50000499739E+01  0.50000500000E+01  0.51100000000E-03 0.  1.
         50    1    1    2    0    0 -0.21982129055E-01  0.22177475287E-02 -0.34453008760E-02  0.50000500000E+01  0.50000000000E+01 0.  1.
         50    1    1    2    0    0  0.21982129055E-01 -0.22177475287E-02  0.34453008760E-02  0.50000500000E+01  0.50000000000E+01 0. -1.
</event>
<event>
 4    1  0.4967105E-021  0.5000050E+01  0.7818608E-02  0.2136455E+00
        -11   -1    0    0    0    0  0.00000000000E+00  0.00000000000E+00  0.50000499739E+01  0.50000500000E+01  0.51100000000E-03 0. -1.
         11   -1    0    0    0    0 -0.00000000000E+00 -0.00000000000E+00 -0.50000499739E+01  0.50000500000E+01  0.51100000000E-03 0.  1.
         50    1    1    2    0    0 -0.79142961383E-02 -0.12805989773E-01  0.16533996569E-01  0.50000500000E+01  0.50000000000E+01 0. -1.
         50    1    1    2    0    0  0.79142961383E-02  0.12805989773E-01 -0.16533996569E-01  0.50000500000E+01  0.50000000000E+01 0. -1.
</event>
<event>
 4    1  0.4967105E-021  0.5000050E+01  0.7818608E-02  0.2136455E+00
        -11   -1    0    0    0    0  0.00000000000E+00  0.00000000000E+00  0.50000499739E+01  0.50000500000E+01  0.51100000000E-03 0. -1.
         11   -1    0    0    0    0 -0.00000000000E+00 -0.00000000000E+00 -0.50000499739E+01  0.50000500000E+01  0.51100000000E-03 0.  1.
         50    1    1    2    0    0  0.19678081277E-01  0.68844882498E-02 -0.80857553003E-02  0.50000500000E+01  0.50000000000E+01 0.  1.
         50    1    1    2    0    0 -0.19678081277E-01 -0.68844882498E-02  0.80857553003E-02  0.50000500000E+01  0.50000000000E+01 0. -1.
</event>
<event>
 4    1  0.4967105E-021  0.5000050E+01  0.7818608E-02  0.2136455E+00
        -11   -1    0    0    0    0  0.00000000000E+00  0.00000000000E+00  0.50000499739E+01  0.50000500000E+01  0.51100000000E-03 0. -1.
         11   -1    0    0    0    0 -0.00000000000E+00 -0.00000000000E+00 -0.50000499739E+01  0.50000500000E+01  0.51100000000E-03 0.  1.
         50    1    1    2    0    0 -0.80740307343E-02 -0.19551343387E-01 -0.72496551281E-02  0.50000500000E+01  0.50000000000E+01 0.  1.
         50    1    1    2    0    0  0.80740307343E-02  0.19551343387E-01  0.72496551281E-02  0.50000500000E+01  0.50000000000E+01 0.  0.
</event>
<event>
 4    1  0.4967105E-021  0.5000050E+01  0.7818608E-02  0.2136455E+00
        -11   -1    0    0    0    0  0.00000000000E+00  0.00000000000E+00  0.50000499739E+01  0.50000500000E+01  0.51100000000E-03 0. -1.
         11   -1    0    0    0    0 -0.00000000000E+00 -0.00000000000E+00 -0.50000499739E+01  0.50000500000E+01  0.51100000000E-03 0.  1.
         50    1    1    2    0    0 -0.63507395894E-04 -0.72596692129E-02  0.21149365705E-01  0.50000500000E+01  0.50000000000E+01 0.  0.
         50    1    1    2    0    0  0.63507395894E-04  0.72596692129E-02 -0.21149365705E-01  0.50000500000E+01  0.50000000000E+01 0.  1.
</event>
<event>
 4    1  0.4967105E-021  0.5000050E+01  0.7818608E-02  0.2136455E+00
        -11   -1    0    0    0    0  0.00000000000E+00  0.00000000000E+00  0.50000499739E+01  0.50000500000E+01  0.51100000000E-03 0.  1.
         11   -1    0    0    0    0 -0.00000000000E+00 -0.00000000000E+00 -0.50000499739E+01  0.50000500000E+01  0.51100000000E-03 0. -1.
         50    1    1    2    0    0  0.10204476400E-01  0.13875777939E-01 -0.14259521310E-01  0.50000500000E+01  0.50000000000E+01 0. -1.
         50    1    1    2    0    0 -0.10204476400E-01 -0.13875777939E-01  0.14259521310E-01  0.50000500000E+01  0.50000000000E+01 0.  1.
</event>
<event>
 4    1  0.4967105E-021  0.5000050E+01  0.7818608E-02  0.2136455E+00
        -11   -1    0    0    0    0  0.00000000000E+00  0.00000000000E+00  0.50000499739E+01  0.50000500000E+01  0.51100000000E-03 0.  1.
         11   -1    0    0    0    0 -0.00000000000E+00 -0.00000000000E+00 -0.50000499739E+01  0.50000500000E+01  0.51100000000E-03 0. -1.
         50    1    1    2    0    0  0.74247569484E-02  0.20499488552E-01 -0.49645194502E-02  0.50000500000E+01  0.50000000000E+01 0.  1.
         50    1    1    2    0    0 -0.74247569484E-02 -0.20499488552E-01  0.49645194502E-02  0.50000500000E+01  0.50000000000E+01 0. -1.
</event>
<event>
 4    1  0.4967105E-021  0.5000050E+01  0.7818608E-02  0.2136455E+00
        -11   -1    0    0    0    0  0.00000000000E+00  0.00000000000E+00  0.50000499739E+01  0.50000500000E+01  0.51100000000E-03 0.  1.
         11   -1    0    0    0    0 -0.00000000000E+00 -0.00000000000E+00 -0.50000499739E+01  0.50000500000E+01  0.51100000000E-03 0. -1.
         50    1    1    2    0    0 -0.46768807173E-02  0.50969037679E-02 -0.21263839228E-01  0.50000500000E+01  0.50000000000E+01 0.  0.
         50    1    1    2    0    0  0.46768807173E-02 -0.50969037679E-02  0.21263839228E-01  0.50000500000E+01  0.50000000000E+01 0.  1.
</event>
<event>
 4    1  0.4967105E-021  0.5000050E+01  0.7818608E-02  0.2136455E+00
        -11   -1    0    0    0    0  0.00000000000E+00  0.00000000000E+00  0.50000499739E+01  0.50000500000E+01  0.51100000000E-03 0.  1.
         11   -1    0    0    0    0 -0.00000000000E+00 -0.00000000000E+00 -0.50000499739E+01  0.50000500000E+01  0.51100000000E-03 0. -1.
         50    1    1    2    0    0 -0.17611911933E-01 -0.13101380264E-01 -0.42634367881E-02  0.50000500000E+01  0.50000000000E+01 0.  0.
         50    1    1    2    0    0  0.17611911933E-01  0.13101380264E-01  0.42634367881E-02  0.50000500000E+01  0.50000000000E+01 0.  1.
</event>
<event>
 4    1  0.4967105E-021  0.5000050E+01  0.7818608E-02  0.2136455E+00
        -11   -1    0    0    0    0  0.00000000000E+00  0.00000000000E+00  0.50000499739E+01  0.50000500000E+01  0.51100000000E-03 0.  1.
         11   -1    0    0    0    0 -0.00000000000E+00 -0.00000000000E+00 -0.50000499739E+01  0.50000500000E+01  0.51100000000E-03 0. -1.
         50    1    1    2    0    0  0.18552390253E-01 -0.12199853494E-01 -0.26410018201E-02  0.50000500000E+01  0.50000000000E+01 0.  1.
         50    1    1    2    0    0 -0.18552390253E-01  0.12199853494E-01  0.26410018201E-02  0.50000500000E+01  0.50000000000E+01 0. -1.
</event>
<event>
 4    1  0.4967105E-021  0.5000050E+01  0.7818608E-02  0.2136455E+00
        -11   -1    0    0    0    0  0.00000000000E+00  0.00000000000E+00  0.50000499739E+01  0.50000500000E+01  0.51100000000E-03 0. -1.
         11   -1    0    0    0    0 -0.00000000000E+00 -0.00000000000E+00 -0.50000499739E+01  0.50000500000E+01  0.51100000000E-03 0.  1.
         50    1    1    2    0    0 -0.12128452402E-02 -0.90535118904E-02 -0.20409934563E-01  0.50000500000E+01  0.50000000000E+01 0.  1.
         50    1    1    2    0    0  0.12128452402E-02  0.90535118904E-02  0.20409934563E-01  0.50000500000E+01  0.50000000000E+01 0.  0.
</event>
<event>
 4    1  0.4967105E-021  0.5000050E+01  0.7818608E-02  0.2136455E+00
        -11   -1    0    0    0    0  0.00000000000E+00  0.00000000000E+00  0.50000499739E+01  0.50000500000E+01  0.51100000000E-03 0. -1.
         11   -1    0    0    0    0 -0.00000000000E+00 -0.00000000000E+00 -0.50000499739E+01  0.50000500000E+01  0.51100000000E-03 0.  1.
         50    1    1    2    0    0 -0.13880970095E-01 -0.12852886426E-01  0.11921597198E-01  0.50000500000E+01  0.50000000000E+01 0.  1.
         50    1    1    2    0    0  0.13880970095E-01  0.12852886426E-01 -0.11921597198E-01  0.50000500000E+01  0.50000000000E+01 0.  0.
</event>
<event>
 4    1  0.4967105E-021  0.5000050E+01  0.7818608E-02  0.2136455E+00
        -11   -1    0    0    0    0  0.00000000000E+00  0.00000000000E+00  0.50000499739E+01  0.50000500000E+01  0.51100000000E-03 0. -1.
         11   -1    0    0    0    0 -0.00000000000E+00 -0.00000000000E+00 -0.50000499739E+01  0.50000500000E+01  0.51100000000E-03 0.  1.
         50    1    1    2    0    0  0.35072497196E-02 -0.16243522596E-01  0.14961606634E-01  0.50000500000E+01  0.50000000000E+01 0.  0.
         50    1    1    2    0    0 -0.35072497196E-02  0.16243522596E-01 -0.14961606634E-01  0.50000500000E+01  0.50000000000E+01 0. -1.
</event>
<event>
 4    1  0.4967105E-021  0.5000050E+01  0.7818608E-02  0.2136455E+00
        -11   -1    0    0    0    0  0.00000000000E+00  0.00000000000E+00  0.50000499739E+01  0.50000500000E+01  0.51100000000E-03 0.  1.
         11   -1    0    0    0    0 -0.00000000000E+00 -0.00000000000E+00 -0.50000499739E+01  0.50000500000E+01  0.51100000000E-03 0. -1.
         50    1    1    2    0    0 -0.70938816463E-02  0.18923793835E-01 -0.95691885801E-02  0.50000500000E+01  0.50000000000E+01 0.  0.
         50    1    1    2    0    0  0.70938816463E-02 -0.18923793835E-01  0.95691885801E-02  0.50000500000E+01  0.50000000000E+01 0. -1.
</event>
<event>
 4    1  0.4967105E-021  0.5000050E+01  0.7818608E-02  0.2136455E+00
        -11   -1    0    0    0    0  0.00000000000E+00  0.00000000000E+00  0.50000499739E+01  0.50000500000E+01  0.51100000000E-03 0.  1.
         11   -1    0    0    0    0 -0.00000000000E+00 -0.00000000000E+00 -0.50000499739E+01  0.50000500000E+01  0.51100000000E-03 0. -1.
         50    1    1    2    0    0  0.10061192348E-01  0.11634632647E-01  0.16229917797E-01  0.50000500000E+01  0.50000000000E+01 0.  1.
         50    1    1    2    0    0 -0.10061192348E-01 -0.11634632647E-01 -0.16229917797E-01  0.50000500000E+01  0.50000000000E+01 0.  1.
</event>
<event>
 4    1  0.4967105E-021  0.5000050E+01  0.7818608E-02  0.2136455E+00
        -11   -1    0    0    0    0  0.00000000000E+00  0.00000000000E+00  0.50000499739E+01  0.50000500000E+01  0.51100000000E-03 0. -1.
         11   -1    0    0    0    0 -0.00000000000E+00 -0.00000000000E+00 -0.50000499739E+01  0.50000500000E+01  0.51100000000E-03 0.  1.
         50    1    1    2    0    0  0.21183694914E-01 -0.71516594304E-02  0.32762353099E-03  0.50000500000E+01  0.50000000000E+01 0. -1.
         50    1    1    2    0    0 -0.21183694914E-01  0.71516594304E-02 -0.32762353099E-03  0.50000500000E+01  0.50000000000E+01 0.  1.
</event>
<event>
 4    1  0.4967105E-021  0.5000050E+01  0.7818608E-02  0.2136455E+00
        -11   -1    0    0    0    0  0.00000000000E+00  0.00000000000E+00  0.50000499739E+01  0.50000500000E+01  0.51100000000E-03 0.  1.
         11   -1    0    0    0    0 -0.00000000000E+00 -0.00000000000E+00 -0.50000499739E+01  0.50000500000E+01  0.51100000000E-03 0. -1.
         50    1    1    2    0    0  0.20940843123E-01  0.58417690411E-02 -0.52304229070E-02  0.50000500000E+01  0.50000000000E+01 0. -1.
         50    1    1    2    0    0 -0.20940843123E-01 -0.58417690411E-02  0.52304229070E-02  0.50000500000E+01  0.50000000000E+01 0. -1.
</event>
<event>
 4    1  0.4967105E-021  0.5000050E+01  0.7818608E-02  0.2136455E+00
        -11   -1    0    0    0    0  0.00000000000E+00  0.00000000000E+00  0.50000499739E+01  0.50000500000E+01  0.51100000000E-03 0.  1.
         11   -1    0    0    0    0 -0.00000000000E+00 -0.00000000000E+00 -0.50000499739E+01  0.50000500000E+01  0.51100000000E-03 0. -1.
         50    1    1    2    0    0  0.58742339677E-03 -0.21237715669E-01  0.69725796450E-02  0.50000500000E+01  0.50000000000E+01 0. -1.
         50    1    1    2    0    0 -0.58742339677E-03  0.21237715669E-01 -0.69725796450E-02  0.50000500000E+01  0.50000000000E+01 0.  0.
</event>
<event>
 4    1  0.4967105E-021  0.5000050E+01  0.7818608E-02  0.2136455E+00
        -11   -1    0    0    0    0  0.00000000000E+00  0.00000000000E+00  0.50000499739E+01  0.50000500000E+01  0.51100000000E-03 0.  1.
         11   -1    0    0    0    0 -0.00000000000E+00 -0.00000000000E+00 -0.50000499739E+01  0.50000500000E+01  0.51100000000E-03 0. -1.
         50    1    1    2    0    0 -0.51917232301E-02  0.85899172267E-02 -0.19981537277E-01  0.50000500000E+01  0.50000000000E+01 0.  0.
         50    1    1    2    0    0  0.51917232301E-02 -0.85899172267E-02  0.19981537277E-01  0.50000500000E+01  0.50000000000E+01 0.  1.
</event>
<event>
 4    1  0.4967105E-021  0.5000050E+01  0.7818608E-02  0.2136455E+00
        -11   -1    0    0    0    0  0.00000000000E+00  0.00000000000E+00  0.50000499739E+01  0.50000500000E+01  0.51100000000E-03 0. -1.
         11   -1    0    0    0    0 -0.00000000000E+00 -0.00000000000E+00 -0.50000499739E+01  0.50000500000E+01  0.51100000000E-03 0.  1.
         50    1    1    2    0    0 -0.10857315115E-01  0.53963516586E-02  0.18788310123E-01  0.50000500000E+01  0.50000000000E+01 0. -1.
         50    1    1    2    0    0  0.10857315115E-01 -0.53963516586E-02 -0.18788310123E-01  0.50000500000E+01  0.50000000000E+01 0.  0.
</event>
<event>
 4    1  0.4967105E-021  0.5000050E+01  0.7818608E-02  0.2136455E+00
        -11   -1    0    0    0    0  0.00000000000E+00  0.00000000000E+00  0.50000499739E+01  0.50000500000E+01  0.51100000000E-03 0.  1.
         11   -1    0    0    0    0 -0.00000000000E+00 -0.00000000000E+00 -0.50000499739E+01  0.50000500000E+01  0.51100000000E-03 0. -1.
         50    1    1    2    0    0  0.15943949685E-01 -0.10282521082E-01  0.11834810038E-01  0.50000500000E+01  0.50000000000E+01 0.  0.
         50    1    1    2    0    0 -0.15943949685E-01  0.10282521082E-01 -0.11834810038E-01  0.50000500000E+01  0.50000000000E+01 0.  1.
</event>
<event>
 4    1  0.4967105E-021  0.5000050E+01  0.7818608E-02  0.2136455E+00
        -11   -1    0    0    0    0  0.00000000000E+00  0.00000000000E+00  0.50000499739E+01  0.50000500000E+01  0.51100000000E-03 0. -1.
         11   -1    0    0    0    0 -0.00000000000E+00 -0.00000000000E+00 -0.50000499739E+01  0.50000500000E+01  0.51100000000E-03 0.  1.
         50    1    1    2    0    0 -0.12541736053E-01 -0.87321529476E-02 -0.16323506415E-01  0.50000500000E+01  0.50000000000E+01 0.  1.
         50    1    1    2    0    0  0.12541736053E-01  0.87321529476E-02  0.16323506415E-01  0.50000500000E+01  0.50000000000E+01 0. -1.
</event>
<event>
 4    1  0.4967105E-021  0.5000050E+01  0.7818608E-02  0.2136455E+00
        -11   -1    0    0    0    0  0.00000000000E+00  0.00000000000E+00  0.50000499739E+01  0.50000500000E+01  0.51100000000E-03 0.  1.
         11   -1    0    0    0    0 -0.00000000000E+00 -0.00000000000E+00 -0.50000499739E+01  0.50000500000E+01  0.51100000000E-03 0. -1.
         50    1    1    2    0    0 -0.10653352896E-01 -0.19417296299E-01 -0.30785023178E-02  0.50000500000E+01  0.50000000000E+01 0. -1.
         50    1    1    2    0    0  0.10653352896E-01  0.19417296299E-01  0.30785023178E-02  0.50000500000E+01  0.50000000000E+01 0.  0.
</event>
<event>
 4    1  0.4967105E-021  0.5000050E+01  0.7818608E-02  0.2136455E+00
        -11   -1    0    0    0    0  0.00000000000E+00  0.00000000000E+00  0.50000499739E+01  0.50000500000E+01  0.51100000000E-03 0.  1.
         11   -1    0    0    0    0 -0.00000000000E+00 -0.00000000000E+00 -0.50000499739E+01  0.50000500000E+01  0.51100000000E-03 0. -1.
         50    1    1    2    0    0 -0.94922875960E-02 -0.91693842239E-02 -0.18050522683E-01  0.50000500000E+01  0.50000000000E+01 0.  0.
         50    1    1    2    0    0  0.94922875960E-02  0.91693842239E-02  0.18050522683E-01  0.50000500000E+01  0.50000000000E+01 0.  1.
</event>
<event>
 4    1  0.4967105E-021  0.5000050E+01  0.7818608E-02  0.2136455E+00
        -11   -1    0    0    0    0  0.00000000000E+00  0.00000000000E+00  0.50000499739E+01  0.50000500000E+01  0.51100000000E-03 0.  1.
         11   -1    0    0    0    0 -0.00000000000E+00 -0.00000000000E+00 -0.50000499739E+01  0.50000500000E+01  0.51100000000E-03 0. -1.
         50    1    1    2    0    0 -0.20667750157E-01  0.85308787007E-02  0.26591738419E-03  0.50000500000E+01  0.50000000000E+01 0.  1.
         50    1    1    2    0    0  0.20667750157E-01 -0.85308787007E-02 -0.26591738419E-03  0.50000500000E+01  0.50000000000E+01 0. -1.
</event>
<event>
 4    1  0.4967105E-021  0.5000050E+01  0.7818608E-02  0.2136455E+00
        -11   -1    0    0    0    0  0.00000000000E+00  0.00000000000E+00  0.50000499739E+01  0.50000500000E+01  0.51100000000E-03 0. -1.
         11   -1    0    0    0    0 -0.00000000000E+00 -0.00000000000E+00 -0.50000499739E+01  0.50000500000E+01  0.51100000000E-03 0.  1.
         50    1    1    2    0    0 -0.21496581427E-01  0.55094213894E-02 -0.27469552057E-02  0.50000500000E+01  0.50000000000E+01 0.  1.
         50    1    1    2    0    0  0.21496581427E-01 -0.55094213894E-02  0.27469552057E-02  0.50000500000E+01  0.50000000000E+01 0. -1.
</event>
<event>
 4    1  0.4967105E-021  0.5000050E+01  0.7818608E-02  0.2136455E+00
        -11   -1    0    0    0    0  0.00000000000E+00  0.00000000000E+00  0.50000499739E+01  0.50000500000E+01  0.51100000000E-03 0. -1.
         11   -1    0    0    0    0 -0.00000000000E+00 -0.00000000000E+00 -0.50000499739E+01  0.50000500000E+01  0.51100000000E-03 0.  1.
         50    1    1    2    0    0  0.21540224038E-01 -0.16033867367E-02 -0.57836320223E-02  0.50000500000E+01  0.50000000000E+01 0.  1.
         50    1    1    2    0    0 -0.21540224038E-01  0.16033867367E-02  0.57836320223E-02  0.50000500000E+01  0.50000000000E+01 0. -1.
</event>
<event>
 4    1  0.4967105E-021  0.5000050E+01  0.7818608E-02  0.2136455E+00
        -11   -1    0    0    0    0  0.00000000000E+00  0.00000000000E+00  0.50000499739E+01  0.50000500000E+01  0.51100000000E-03 0.  1.
         11   -1    0    0    0    0 -0.00000000000E+00 -0.00000000000E+00 -0.50000499739E+01  0.50000500000E+01  0.51100000000E-03 0. -1.
         50    1    1    2    0    0  0.14065041209E-01  0.15448141927E-01  0.79706980108E-02  0.50000500000E+01  0.50000000000E+01 0.  1.
         50    1    1    2    0    0 -0.14065041209E-01 -0.15448141927E-01 -0.79706980108E-02  0.50000500000E+01  0.50000000000E+01 0. -1.
</event>
<event>
 4    1  0.4967105E-021  0.5000050E+01  0.7818608E-02  0.2136455E+00
        -11   -1    0    0    0    0  0.00000000000E+00  0.00000000000E+00  0.50000499739E+01  0.50000500000E+01  0.51100000000E-03 0. -1.
         11   -1    0    0    0    0 -0.00000000000E+00 -0.00000000000E+00 -0.50000499739E+01  0.50000500000E+01  0.51100000000E-03 0.  1.
         50    1    1    2    0    0  0.49064058426E-02 -0.21812702735E-01 -0.36834914368E-03  0.50000500000E+01  0.50000000000E+01 0.  0.
         50    1    1    2    0    0 -0.49064058426E-02  0.21812702735E-01  0.36834914368E-03  0.50000500000E+01  0.50000000000E+01 0. -1.
</event>
<event>
 4    1  0.4967105E-021  0.5000050E+01  0.7818608E-02  0.2136455E+00
        -11   -1    0    0    0    0  0.00000000000E+00  0.00000000000E+00  0.50000499739E+01  0.50000500000E+01  0.51100000000E-03 0.  1.
         11   -1    0    0    0    0 -0.00000000000E+00 -0.00000000000E+00 -0.50000499739E+01  0.50000500000E+01  0.51100000000E-03 0. -1.
         50    1    1    2    0    0 -0.16076203495E-01 -0.31078339549E-02 -0.15228248399E-01  0.50000500000E+01  0.50000000000E+01 0. -1.
         50    1    1    2    0    0  0.16076203495E-01  0.31078339549E-02  0.15228248399E-01  0.50000500000E+01  0.50000000000E+01 0.  1.
</event>
<event>
 4    1  0.4967105E-021  0.5000050E+01  0.7818608E-02  0.2136455E+00
        -11   -1    0    0    0    0  0.00000000000E+00  0.00000000000E+00  0.50000499739E+01  0.50000500000E+01  0.51100000000E-03 0.  1.
         11   -1    0    0    0    0 -0.00000000000E+00 -0.00000000000E+00 -0.50000499739E+01  0.50000500000E+01  0.51100000000E-03 0. -1.
         50    1    1    2    0    0  0.28858001860E-02  0.21628152696E-01  0.48885241396E-02  0.50000500000E+01  0.50000000000E+01 0.  1.
         50    1    1    2    0    0 -0.28858001860E-02 -0.21628152696E-01 -0.48885241396E-02  0.50000500000E+01  0.50000000000E+01 0. -1.
</event>
<event>
 4    1  0.4967105E-021  0.5000050E+01  0.7818608E-02  0.2136455E+00
        -11   -1    0    0    0    0  0.00000000000E+00  0.00000000000E+00  0.50000499739E+01  0.50000500000E+01  0.51100000000E-03 0. -1.
         11   -1    0    0    0    0 -0.00000000000E+00 -0.00000000000E+00 -0.50000499739E+01  0.50000500000E+01  0.51100000000E-03 0.  1.
         50    1    1    2    0    0  0.20978595537E-01 -0.63071612930E-02  0.44856154215E-02  0.50000500000E+01  0.50000000000E+01 0.  0.
         50    1    1    2    0    0 -0.20978595537E-01  0.63071612930E-02 -0.44856154215E-02  0.50000500000E+01  0.50000000000E+01 0.  0.
</event>
<event>
 4    1  0.4967105E-021  0.5000050E+01  0.7818608E-02  0.2136455E+00
        -11   -1    0    0    0    0  0.00000000000E+00  0.00000000000E+00  0.50000499739E+01  0.50000500000E+01  0.51100000000E-03 0.  1.
         11   -1    0    0    0    0 -0.00000000000E+00 -0.00000000000E+00 -0.50000499739E+01  0.50000500000E+01  0.51100000000E-03 0. -1.
         50    1    1    2    0    0  0.18551316649E-01  0.58099160335E-02  0.11049707067E-01  0.50000500000E+01  0.50000000000E+01 0.  1.
         50    1    1    2    0    0 -0.18551316649E-01 -0.58099160335E-02 -0.11049707067E-01  0.50000500000E+01  0.50000000000E+01 0. -1.
</event>
<event>
 4    1  0.4967105E-021  0.5000050E+01  0.7818608E-02  0.2136455E+00
        -11   -1    0    0    0    0  0.00000000000E+00  0.00000000000E+00  0.50000499739E+01  0.50000500000E+01  0.51100000000E-03 0.  1.
         11   -1    0    0    0    0 -0.00000000000E+00 -0.00000000000E+00 -0.50000499739E+01  0.50000500000E+01  0.51100000000E-03 0. -1.
         50    1    1    2    0    0  0.17252472952E-01  0.40074653143E-02 -0.13648988929E-01  0.50000500000E+01  0.50000000000E+01 0. -1.
         50    1    1    2    0    0 -0.17252472952E-01 -0.40074653143E-02  0.13648988929E-01  0.50000500000E+01  0.50000000000E+01 0.  1.
</event>
<event>
 4    1  0.4967105E-021  0.5000050E+01  0.7818608E-02  0.2136455E+00
        -11   -1    0    0    0    0  0.00000000000E+00  0.00000000000E+00  0.50000499739E+01  0.50000500000E+01  0.51100000000E-03 0.  1.
         11   -1    0    0    0    0 -0.00000000000E+00 -0.00000000000E+00 -0.50000499739E+01  0.50000500000E+01  0.51100000000E-03 0. -1.
         50    1    1    2    0    0 -0.28642455330E-02  0.85485408148E-02  0.20462674494E-01  0.50000500000E+01  0.50000000000E+01 0.  0.
         50    1    1    2    0    0  0.28642455330E-02 -0.85485408148E-02 -0.20462674494E-01  0.50000500000E+01  0.50000000000E+01 0. -1.
</event>
<event>
 4    1  0.4967105E-021  0.5000050E+01  0.7818608E-02  0.2136455E+00
        -11   -1    0    0    0    0  0.00000000000E+00  0.00000000000E+00  0.50000499739E+01  0.50000500000E+01  0.51100000000E-03 0. -1.
         11   -1    0    0    0    0 -0.00000000000E+00 -0.00000000000E+00 -0.50000499739E+01  0.50000500000E+01  0.51100000000E-03 0.  1.
         50    1    1    2    0    0  0.14073040264E-01  0.90891584007E-02 -0.14810105917E-01  0.50000500000E+01  0.50000000000E+01 0.  0.
         50    1    1    2    0    0 -0.14073040264E-01 -0.90891584007E-02  0.14810105917E-01  0.50000500000E+01  0.50000000000E+01 0.  0.
</event>
<event>
 4    1  0.4967105E-021  0.5000050E+01  0.7818608E-02  0.2136455E+00
        -11   -1    0    0    0    0  0.00000000000E+00  0.00000000000E+00  0.50000499739E+01  0.50000500000E+01  0.51100000000E-03 0.  1.
         11   -1    0    0    0    0 -0.00000000000E+00 -0.00000000000E+00 -0.50000499739E+01  0.50000500000E+01  0.51100000000E-03 0. -1.
         50    1    1    2    0    0 -0.64022125314E-02  0.73897625780E-02 -0.20109837984E-01  0.50000500000E+01  0.50000000000E+01 0. -1.
         50    1    1    2    0    0  0.64022125314E-02 -0.73897625780E-02  0.20109837984E-01  0.50000500000E+01  0.50000000000E+01 0.  0.
</event>
<event>
 4    1  0.4967105E-021  0.5000050E+01  0.7818608E-02  0.2136455E+00
        -11   -1    0    0    0    0  0.00000000000E+00  0.00000000000E+00  0.50000499739E+01  0.50000500000E+01  0.51100000000E-03 0. -1.
         11   -1    0    0    0    0 -0.00000000000E+00 -0.00000000000E+00 -0.50000499739E+01  0.50000500000E+01  0.51100000000E-03 0.  1.
         50    1    1    2    0    0  0.93209407997E-02 -0.71161924286E-02  0.19038969718E-01  0.50000500000E+01  0.50000000000E+01 0. -1.
         50    1    1    2    0    0 -0.93209407997E-02  0.71161924286E-02 -0.19038969718E-01  0.50000500000E+01  0.50000000000E+01 0.  0.
</event>
<event>
 4    1  0.4967105E-021  0.5000050E+01  0.7818608E-02  0.2136455E+00
        -11   -1    0    0    0    0  0.00000000000E+00  0.00000000000E+00  0.50000499739E+01  0.50000500000E+01  0.51100000000E-03 0.  1.
         11   -1    0    0    0    0 -0.00000000000E+00 -0.00000000000E+00 -0.50000499739E+01  0.50000500000E+01  0.51100000000E-03 0. -1.
         50    1    1    2    0    0 -0.35213950465E-02  0.21985917414E-01  0.20546806057E-02  0.50000500000E+01  0.50000000000E+01 0.  1.
         50    1    1    2    0    0  0.35213950465E-02 -0.21985917414E-01 -0.20546806057E-02  0.50000500000E+01  0.50000000000E+01 0. -1.
</event>
<event>
 4    1  0.4967105E-021  0.5000050E+01  0.7818608E-02  0.2136455E+00
        -11   -1    0    0    0    0  0.00000000000E+00  0.00000000000E+00  0.50000499739E+01  0.50000500000E+01  0.51100000000E-03 0. -1.
         11   -1    0    0    0    0 -0.00000000000E+00 -0.00000000000E+00 -0.50000499739E+01  0.50000500000E+01  0.51100000000E-03 0.  1.
         50    1    1    2    0    0 -0.31278855852E-02 -0.22119321713E-01  0.97695379300E-03  0.50000500000E+01  0.50000000000E+01 0. -1.
         50    1    1    2    0    0  0.31278855852E-02  0.22119321713E-01 -0.97695379300E-03  0.50000500000E+01  0.50000000000E+01 0.  1.
</event>
<event>
 4    1  0.4967105E-021  0.5000050E+01  0.7818608E-02  0.2136455E+00
        -11   -1    0    0    0    0  0.00000000000E+00  0.00000000000E+00  0.50000499739E+01  0.50000500000E+01  0.51100000000E-03 0.  1.
         11   -1    0    0    0    0 -0.00000000000E+00 -0.00000000000E+00 -0.50000499739E+01  0.50000500000E+01  0.51100000000E-03 0. -1.
         50    1    1    2    0    0 -0.18630584258E-01 -0.75091938278E-02 -0.98242474646E-02  0.50000500000E+01  0.50000000000E+01 0.  1.
         50    1    1    2    0    0  0.18630584258E-01  0.75091938278E-02  0.98242474646E-02  0.50000500000E+01  0.50000000000E+01 0.  0.
</event>
<event>
 4    1  0.4967105E-021  0.5000050E+01  0.7818608E-02  0.2136455E+00
        -11   -1    0    0    0    0  0.00000000000E+00  0.00000000000E+00  0.50000499739E+01  0.50000500000E+01  0.51100000000E-03 0.  1.
         11   -1    0    0    0    0 -0.00000000000E+00 -0.00000000000E+00 -0.50000499739E+01  0.50000500000E+01  0.51100000000E-03 0. -1.
         50    1    1    2    0    0  0.16777271266E-01  0.13597321502E-01  0.57998721408E-02  0.50000500000E+01  0.50000000000E+01 0. -1.
         50    1    1    2    0    0 -0.16777271266E-01 -0.13597321502E-01 -0.57998721408E-02  0.50000500000E+01  0.50000000000E+01 0.  0.
</event>
<event>
 4    1  0.4967105E-021  0.5000050E+01  0.7818608E-02  0.2136455E+00
        -11   -1    0    0    0    0  0.00000000000E+00  0.00000000000E+00  0.50000499739E+01  0.50000500000E+01  0.51100000000E-03 0.  1.
         11   -1    0    0    0    0 -0.00000000000E+00 -0.00000000000E+00 -0.50000499739E+01  0.50000500000E+01  0.51100000000E-03 0. -1.
         50    1    1    2    0    0  0.13965190365E-01 -0.14768963200E-01 -0.93195323944E-02  0.50000500000E+01  0.50000000000E+01 0. -1.
         50    1    1    2    0    0 -0.13965190365E-01  0.14768963200E-01  0.93195323944E-02  0.50000500000E+01  0.50000000000E+01 0.  1.
</event>
<event>
 4    1  0.4967105E-021  0.5000050E+01  0.7818608E-02  0.2136455E+00
        -11   -1    0    0    0    0  0.00000000000E+00  0.00000000000E+00  0.50000499739E+01  0.50000500000E+01  0.51100000000E-03 0.  1.
         11   -1    0    0    0    0 -0.00000000000E+00 -0.00000000000E+00 -0.50000499739E+01  0.50000500000E+01  0.51100000000E-03 0. -1.
         50    1    1    2    0    0  0.37280763536E-02 -0.81546147628E-02 -0.20484291659E-01  0.50000500000E+01  0.50000000000E+01 0. -1.
         50    1    1    2    0    0 -0.37280763536E-02  0.81546147628E-02  0.20484291659E-01  0.50000500000E+01  0.50000000000E+01 0.  0.
</event>
<event>
 4    1  0.4967105E-021  0.5000050E+01  0.7818608E-02  0.2136455E+00
        -11   -1    0    0    0    0  0.00000000000E+00  0.00000000000E+00  0.50000499739E+01  0.50000500000E+01  0.51100000000E-03 0. -1.
         11   -1    0    0    0    0 -0.00000000000E+00 -0.00000000000E+00 -0.50000499739E+01  0.50000500000E+01  0.51100000000E-03 0.  1.
         50    1    1    2    0    0  0.13962028506E-01 -0.15683231259E-01  0.76876860804E-02  0.50000500000E+01  0.50000000000E+01 0. -1.
         50    1    1    2    0    0 -0.13962028506E-01  0.15683231259E-01 -0.76876860804E-02  0.50000500000E+01  0.50000000000E+01 0.  1.
</event>
<event>
 4    1  0.4967105E-021  0.5000050E+01  0.7818608E-02  0.2136455E+00
        -11   -1    0    0    0    0  0.00000000000E+00  0.00000000000E+00  0.50000499739E+01  0.50000500000E+01  0.51100000000E-03 0. -1.
         11   -1    0    0    0    0 -0.00000000000E+00 -0.00000000000E+00 -0.50000499739E+01  0.50000500000E+01  0.51100000000E-03 0.  1.
         50    1    1    2    0    0 -0.62249885096E-02 -0.21015790729E-01  0.44258963015E-02  0.50000500000E+01  0.50000000000E+01 0. -1.
         50    1    1    2    0    0  0.62249885096E-02  0.21015790729E-01 -0.44258963015E-02  0.50000500000E+01  0.50000000000E+01 0.  1.
</event>
<event>
 4    1  0.4967105E-021  0.5000050E+01  0.7818608E-02  0.2136455E+00
        -11   -1    0    0    0    0  0.00000000000E+00  0.00000000000E+00  0.50000499739E+01  0.50000500000E+01  0.51100000000E-03 0.  1.
         11   -1    0    0    0    0 -0.00000000000E+00 -0.00000000000E+00 -0.50000499739E+01  0.50000500000E+01  0.51100000000E-03 0. -1.
         50    1    1    2    0    0 -0.15276343796E-01 -0.23972425751E-02  0.16152060186E-01  0.50000500000E+01  0.50000000000E+01 0.  1.
         50    1    1    2    0    0  0.15276343796E-01  0.23972425751E-02 -0.16152060186E-01  0.50000500000E+01  0.50000000000E+01 0. -1.
</event>
<event>
 4    1  0.4967105E-021  0.5000050E+01  0.7818608E-02  0.2136455E+00
        -11   -1    0    0    0    0  0.00000000000E+00  0.00000000000E+00  0.50000499739E+01  0.50000500000E+01  0.51100000000E-03 0.  1.
         11   -1    0    0    0    0 -0.00000000000E+00 -0.00000000000E+00 -0.50000499739E+01  0.50000500000E+01  0.51100000000E-03 0. -1.
         50    1    1    2    0    0  0.15144102197E-02 -0.20378584810E-01 -0.90786751697E-02  0.50000500000E+01  0.50000000000E+01 0. -1.
         50    1    1    2    0    0 -0.15144102197E-02  0.20378584810E-01  0.90786751697E-02  0.50000500000E+01  0.50000000000E+01 0.  1.
</event>
<event>
 4    1  0.4967105E-021  0.5000050E+01  0.7818608E-02  0.2136455E+00
        -11   -1    0    0    0    0  0.00000000000E+00  0.00000000000E+00  0.50000499739E+01  0.50000500000E+01  0.51100000000E-03 0.  1.
         11   -1    0    0    0    0 -0.00000000000E+00 -0.00000000000E+00 -0.50000499739E+01  0.50000500000E+01  0.51100000000E-03 0. -1.
         50    1    1    2    0    0  0.19786817401E-02 -0.16219079558E-01  0.15265280111E-01  0.50000500000E+01  0.50000000000E+01 0.  1.
         50    1    1    2    0    0 -0.19786817401E-02  0.16219079558E-01 -0.15265280111E-01  0.50000500000E+01  0.50000000000E+01 0. -1.
</event>
<event>
 4    1  0.4967105E-021  0.5000050E+01  0.7818608E-02  0.2136455E+00
        -11   -1    0    0    0    0  0.00000000000E+00  0.00000000000E+00  0.50000499739E+01  0.50000500000E+01  0.51100000000E-03 0.  1.
         11   -1    0    0    0    0 -0.00000000000E+00 -0.00000000000E+00 -0.50000499739E+01  0.50000500000E+01  0.51100000000E-03 0. -1.
         50    1    1    2    0    0  0.56926142869E-02 -0.13441290596E-01 -0.16938959522E-01  0.50000500000E+01  0.50000000000E+01 0.  1.
         50    1    1    2    0    0 -0.56926142869E-02  0.13441290596E-01  0.16938959522E-01  0.50000500000E+01  0.50000000000E+01 0.  0.
</event>
<event>
 4    1  0.4967105E-021  0.5000050E+01  0.7818608E-02  0.2136455E+00
        -11   -1    0    0    0    0  0.00000000000E+00  0.00000000000E+00  0.50000499739E+01  0.50000500000E+01  0.51100000000E-03 0.  1.
         11   -1    0    0    0    0 -0.00000000000E+00 -0.00000000000E+00 -0.50000499739E+01  0.50000500000E+01  0.51100000000E-03 0. -1.
         50    1    1    2    0    0 -0.10984549029E-01 -0.32410774634E-02 -0.19205145131E-01  0.50000500000E+01  0.50000000000E+01 0.  0.
         50    1    1    2    0    0  0.10984549029E-01  0.32410774634E-02  0.19205145131E-01  0.50000500000E+01  0.50000000000E+01 0.  1.
</event>
<event>
 4    1  0.4967105E-021  0.5000050E+01  0.7818608E-02  0.2136455E+00
        -11   -1    0    0    0    0  0.00000000000E+00  0.00000000000E+00  0.50000499739E+01  0.50000500000E+01  0.51100000000E-03 0.  1.
         11   -1    0    0    0    0 -0.00000000000E+00 -0.00000000000E+00 -0.50000499739E+01  0.50000500000E+01  0.51100000000E-03 0. -1.
         50    1    1    2    0    0 -0.15528940284E-01  0.14125271827E-01 -0.77026754753E-02  0.50000500000E+01  0.50000000000E+01 0. -1.
         50    1    1    2    0    0  0.15528940284E-01 -0.14125271827E-01  0.77026754753E-02  0.50000500000E+01  0.50000000000E+01 0.  1.
</event>
<event>
 4    1  0.4967105E-021  0.5000050E+01  0.7818608E-02  0.2136455E+00
        -11   -1    0    0    0    0  0.00000000000E+00  0.00000000000E+00  0.50000499739E+01  0.50000500000E+01  0.51100000000E-03 0. -1.
         11   -1    0    0    0    0 -0.00000000000E+00 -0.00000000000E+00 -0.50000499739E+01  0.50000500000E+01  0.51100000000E-03 0.  1.
         50    1    1    2    0    0 -0.49493591196E-02 -0.16930015803E-01  0.13743395112E-01  0.50000500000E+01  0.50000000000E+01 0.  0.
         50    1    1    2    0    0  0.49493591196E-02  0.16930015803E-01 -0.13743395112E-01  0.50000500000E+01  0.50000000000E+01 0.  0.
</event>
<event>
 4    1  0.4967105E-021  0.5000050E+01  0.7818608E-02  0.2136455E+00
        -11   -1    0    0    0    0  0.00000000000E+00  0.00000000000E+00  0.50000499739E+01  0.50000500000E+01  0.51100000000E-03 0.  1.
         11   -1    0    0    0    0 -0.00000000000E+00 -0.00000000000E+00 -0.50000499739E+01  0.50000500000E+01  0.51100000000E-03 0. -1.
         50    1    1    2    0    0 -0.20980552151E-01 -0.77173707356E-02  0.51099938826E-03  0.50000500000E+01  0.50000000000E+01 0.  0.
         50    1    1    2    0    0  0.20980552151E-01  0.77173707356E-02 -0.51099938826E-03  0.50000500000E+01  0.50000000000E+01 0.  1.
</event>
<event>
 4    1  0.4967105E-021  0.5000050E+01  0.7818608E-02  0.2136455E+00
        -11   -1    0    0    0    0  0.00000000000E+00  0.00000000000E+00  0.50000499739E+01  0.50000500000E+01  0.51100000000E-03 0. -1.
         11   -1    0    0    0    0 -0.00000000000E+00 -0.00000000000E+00 -0.50000499739E+01  0.50000500000E+01  0.51100000000E-03 0.  1.
         50    1    1    2    0    0 -0.42616823859E-02 -0.20560041403E-01 -0.76892952045E-02  0.50000500000E+01  0.50000000000E+01 0.  0.
         50    1    1    2    0    0  0.42616823859E-02  0.20560041403E-01  0.76892952045E-02  0.50000500000E+01  0.50000000000E+01 0.  1.
</event>
<event>
 4    1  0.4967105E-021  0.5000050E+01  0.7818608E-02  0.2136455E+00
        -11   -1    0    0    0    0  0.00000000000E+00  0.00000000000E+00  0.50000499739E+01  0.50000500000E+01  0.51100000000E-03 0.  1.
         11   -1    0    0    0    0 -0.00000000000E+00 -0.00000000000E+00 -0.50000499739E+01  0.50000500000E+01  0.51100000000E-03 0. -1.
         50    1    1    2    0    0 -0.13885709240E-02  0.22269997789E-01 -0.14565607675E-02  0.50000500000E+01  0.50000000000E+01 0.  1.
         50    1    1    2    0    0  0.13885709240E-02 -0.22269997789E-01  0.14565607675E-02  0.50000500000E+01  0.50000000000E+01 0.  0.
</event>
<event>
 4    1  0.4967105E-021  0.5000050E+01  0.7818608E-02  0.2136455E+00
        -11   -1    0    0    0    0  0.00000000000E+00  0.00000000000E+00  0.50000499739E+01  0.50000500000E+01  0.51100000000E-03 0. -1.
         11   -1    0    0    0    0 -0.00000000000E+00 -0.00000000000E+00 -0.50000499739E+01  0.50000500000E+01  0.51100000000E-03 0.  1.
         50    1    1    2    0    0  0.92799338232E-02 -0.70843626733E-03  0.20331833323E-01  0.50000500000E+01  0.50000000000E+01 0.  0.
         50    1    1    2    0    0 -0.92799338232E-02  0.70843626733E-03 -0.20331833323E-01  0.50000500000E+01  0.50000000000E+01 0.  1.
</event>
<event>
 4    1  0.4967105E-021  0.5000050E+01  0.7818608E-02  0.2136455E+00
        -11   -1    0    0    0    0  0.00000000000E+00  0.00000000000E+00  0.50000499739E+01  0.50000500000E+01  0.51100000000E-03 0. -1.
         11   -1    0    0    0    0 -0.00000000000E+00 -0.00000000000E+00 -0.50000499739E+01  0.50000500000E+01  0.51100000000E-03 0.  1.
         50    1    1    2    0    0 -0.20372778549E-01  0.71389745043E-02  0.58298745469E-02  0.50000500000E+01  0.50000000000E+01 0.  0.
         50    1    1    2    0    0  0.20372778549E-01 -0.71389745043E-02 -0.58298745469E-02  0.50000500000E+01  0.50000000000E+01 0. -1.
</event>
<event>
 4    1  0.4967105E-021  0.5000050E+01  0.7818608E-02  0.2136455E+00
        -11   -1    0    0    0    0  0.00000000000E+00  0.00000000000E+00  0.50000499739E+01  0.50000500000E+01  0.51100000000E-03 0. -1.
         11   -1    0    0    0    0 -0.00000000000E+00 -0.00000000000E+00 -0.50000499739E+01  0.50000500000E+01  0.51100000000E-03 0.  1.
         50    1    1    2    0    0  0.91829435858E-02 -0.59729978333E-02  0.19493571863E-01  0.50000500000E+01  0.50000000000E+01 0. -1.
         50    1    1    2    0    0 -0.91829435858E-02  0.59729978333E-02 -0.19493571863E-01  0.50000500000E+01  0.50000000000E+01 0.  1.
</event>
<event>
 4    1  0.4967105E-021  0.5000050E+01  0.7818608E-02  0.2136455E+00
        -11   -1    0    0    0    0  0.00000000000E+00  0.00000000000E+00  0.50000499739E+01  0.50000500000E+01  0.51100000000E-03 0.  1.
         11   -1    0    0    0    0 -0.00000000000E+00 -0.00000000000E+00 -0.50000499739E+01  0.50000500000E+01  0.51100000000E-03 0. -1.
         50    1    1    2    0    0  0.99025494069E-02  0.18435628963E-01 -0.78784262374E-02  0.50000500000E+01  0.50000000000E+01 0.  0.
         50    1    1    2    0    0 -0.99025494069E-02 -0.18435628963E-01  0.78784262374E-02  0.50000500000E+01  0.50000000000E+01 0.  0.
</event>
<event>
 4    1  0.4967105E-021  0.5000050E+01  0.7818608E-02  0.2136455E+00
        -11   -1    0    0    0    0  0.00000000000E+00  0.00000000000E+00  0.50000499739E+01  0.50000500000E+01  0.51100000000E-03 0.  1.
         11   -1    0    0    0    0 -0.00000000000E+00 -0.00000000000E+00 -0.50000499739E+01  0.50000500000E+01  0.51100000000E-03 0. -1.
         50    1    1    2    0    0  0.16695850599E-01  0.73705016532E-02  0.12920014634E-01  0.50000500000E+01  0.50000000000E+01 0.  1.
         50    1    1    2    0    0 -0.16695850599E-01 -0.73705016532E-02 -0.12920014634E-01  0.50000500000E+01  0.50000000000E+01 0. -1.
</event>
<event>
 4    1  0.4967105E-021  0.5000050E+01  0.7818608E-02  0.2136455E+00
        -11   -1    0    0    0    0  0.00000000000E+00  0.00000000000E+00  0.50000499739E+01  0.50000500000E+01  0.51100000000E-03 0. -1.
         11   -1    0    0    0    0 -0.00000000000E+00 -0.00000000000E+00 -0.50000499739E+01  0.50000500000E+01  0.51100000000E-03 0.  1.
         50    1    1    2    0    0 -0.69569732167E-02  0.21131612937E-01 -0.22489905198E-02  0.50000500000E+01  0.50000000000E+01 0. -1.
         50    1    1    2    0    0  0.69569732167E-02 -0.21131612937E-01  0.22489905198E-02  0.50000500000E+01  0.50000000000E+01 0.  0.
</event>
<event>
 4    1  0.4967105E-021  0.5000050E+01  0.7818608E-02  0.2136455E+00
        -11   -1    0    0    0    0  0.00000000000E+00  0.00000000000E+00  0.50000499739E+01  0.50000500000E+01  0.51100000000E-03 0.  1.
         11   -1    0    0    0    0 -0.00000000000E+00 -0.00000000000E+00 -0.50000499739E+01  0.50000500000E+01  0.51100000000E-03 0. -1.
         50    1    1    2    0    0  0.21601836712E-01 -0.26464099153E-02  0.51341664577E-02  0.50000500000E+01  0.50000000000E+01 0.  0.
         50    1    1    2    0    0 -0.21601836712E-01  0.26464099153E-02 -0.51341664577E-02  0.50000500000E+01  0.50000000000E+01 0.  1.
</event>
<event>
 4    1  0.4967105E-021  0.5000050E+01  0.7818608E-02  0.2136455E+00
        -11   -1    0    0    0    0  0.00000000000E+00  0.00000000000E+00  0.50000499739E+01  0.50000500000E+01  0.51100000000E-03 0.  1.
         11   -1    0    0    0    0 -0.00000000000E+00 -0.00000000000E+00 -0.50000499739E+01  0.50000500000E+01  0.51100000000E-03 0. -1.
         50    1    1    2    0    0 -0.16473910698E-01  0.96096609916E-02  0.11673353500E-01  0.50000500000E+01  0.50000000000E+01 0.  0.
         50    1    1    2    0    0  0.16473910698E-01 -0.96096609916E-02 -0.11673353500E-01  0.50000500000E+01  0.50000000000E+01 0.  1.
</event>
<event>
 4    1  0.4967105E-021  0.5000050E+01  0.7818608E-02  0.2136455E+00
        -11   -1    0    0    0    0  0.00000000000E+00  0.00000000000E+00  0.50000499739E+01  0.50000500000E+01  0.51100000000E-03 0. -1.
         11   -1    0    0    0    0 -0.00000000000E+00 -0.00000000000E+00 -0.50000499739E+01  0.50000500000E+01  0.51100000000E-03 0.  1.
         50    1    1    2    0    0 -0.36068368800E-02 -0.17861442751E-02  0.21995520370E-01  0.50000500000E+01  0.50000000000E+01 0.  0.
         50    1    1    2    0    0  0.36068368800E-02  0.17861442751E-02 -0.21995520370E-01  0.50000500000E+01  0.50000000000E+01 0.  1.
</event>
<event>
 4    1  0.4967105E-021  0.5000050E+01  0.7818608E-02  0.2136455E+00
        -11   -1    0    0    0    0  0.00000000000E+00  0.00000000000E+00  0.50000499739E+01  0.50000500000E+01  0.51100000000E-03 0.  1.
         11   -1    0    0    0    0 -0.00000000000E+00 -0.00000000000E+00 -0.50000499739E+01  0.50000500000E+01  0.51100000000E-03 0. -1.
         50    1    1    2    0    0  0.16274461542E-02  0.21047801039E-01 -0.73718376565E-02  0.50000500000E+01  0.50000000000E+01 0.  1.
         50    1    1    2    0    0 -0.16274461542E-02 -0.21047801039E-01  0.73718376565E-02  0.50000500000E+01  0.50000000000E+01 0.  0.
</event>
<event>
 4    1  0.4967105E-021  0.5000050E+01  0.7818608E-02  0.2136455E+00
        -11   -1    0    0    0    0  0.00000000000E+00  0.00000000000E+00  0.50000499739E+01  0.50000500000E+01  0.51100000000E-03 0. -1.
         11   -1    0    0    0    0 -0.00000000000E+00 -0.00000000000E+00 -0.50000499739E+01  0.50000500000E+01  0.51100000000E-03 0.  1.
         50    1    1    2    0    0 -0.90512947229E-02 -0.20193270790E-01  0.32106663848E-02  0.50000500000E+01  0.50000000000E+01 0.  0.
         50    1    1    2    0    0  0.90512947229E-02  0.20193270790E-01 -0.32106663848E-02  0.50000500000E+01  0.50000000000E+01 0. -1.
</event>
<event>
 4    1  0.4967105E-021  0.5000050E+01  0.7818608E-02  0.2136455E+00
        -11   -1    0    0    0    0  0.00000000000E+00  0.00000000000E+00  0.50000499739E+01  0.50000500000E+01  0.51100000000E-03 0. -1.
         11   -1    0    0    0    0 -0.00000000000E+00 -0.00000000000E+00 -0.50000499739E+01  0.50000500000E+01  0.51100000000E-03 0.  1.
         50    1    1    2    0    0 -0.11031388803E-01  0.16230418181E-01  0.10718418108E-01  0.50000500000E+01  0.50000000000E+01 0. -1.
         50    1    1    2    0    0  0.11031388803E-01 -0.16230418181E-01 -0.10718418108E-01  0.50000500000E+01  0.50000000000E+01 0.  1.
</event>
<event>
 4    1  0.4967105E-021  0.5000050E+01  0.7818608E-02  0.2136455E+00
        -11   -1    0    0    0    0  0.00000000000E+00  0.00000000000E+00  0.50000499739E+01  0.50000500000E+01  0.51100000000E-03 0. -1.
         11   -1    0    0    0    0 -0.00000000000E+00 -0.00000000000E+00 -0.50000499739E+01  0.50000500000E+01  0.51100000000E-03 0.  1.
         50    1    1    2    0    0 -0.19311823634E-01  0.62241352956E-02 -0.93976650166E-02  0.50000500000E+01  0.50000000000E+01 0. -1.
         50    1    1    2    0    0  0.19311823634E-01 -0.62241352956E-02  0.93976650166E-02  0.50000500000E+01  0.50000000000E+01 0.  0.
</event>
<event>
 4    1  0.4967105E-021  0.5000050E+01  0.7818608E-02  0.2136455E+00
        -11   -1    0    0    0    0  0.00000000000E+00  0.00000000000E+00  0.50000499739E+01  0.50000500000E+01  0.51100000000E-03 0. -1.
         11   -1    0    0    0    0 -0.00000000000E+00 -0.00000000000E+00 -0.50000499739E+01  0.50000500000E+01  0.51100000000E-03 0.  1.
         50    1    1    2    0    0 -0.47098240087E-02 -0.13890907929E-01  0.16877877080E-01  0.50000500000E+01  0.50000000000E+01 0. -1.
         50    1    1    2    0    0  0.47098240087E-02  0.13890907929E-01 -0.16877877080E-01  0.50000500000E+01  0.50000000000E+01 0.  1.
</event>
<event>
 4    1  0.4967105E-021  0.5000050E+01  0.7818608E-02  0.2136455E+00
        -11   -1    0    0    0    0  0.00000000000E+00  0.00000000000E+00  0.50000499739E+01  0.50000500000E+01  0.51100000000E-03 0. -1.
         11   -1    0    0    0    0 -0.00000000000E+00 -0.00000000000E+00 -0.50000499739E+01  0.50000500000E+01  0.51100000000E-03 0.  1.
         50    1    1    2    0    0 -0.13839396551E-01  0.17169544966E-01  0.36986928425E-02  0.50000500000E+01  0.50000000000E+01 0.  0.
         50    1    1    2    0    0  0.13839396551E-01 -0.17169544966E-01 -0.36986928425E-02  0.50000500000E+01  0.50000000000E+01 0. -1.
</event>
<event>
 4    1  0.4967105E-021  0.5000050E+01  0.7818608E-02  0.2136455E+00
        -11   -1    0    0    0    0  0.00000000000E+00  0.00000000000E+00  0.50000499739E+01  0.50000500000E+01  0.51100000000E-03 0. -1.
         11   -1    0    0    0    0 -0.00000000000E+00 -0.00000000000E+00 -0.50000499739E+01  0.50000500000E+01  0.51100000000E-03 0.  1.
         50    1    1    2    0    0 -0.52009779461E-02  0.18731238981E-01  0.11049570790E-01  0.50000500000E+01  0.50000000000E+01 0.  1.
         50    1    1    2    0    0  0.52009779461E-02 -0.18731238981E-01 -0.11049570790E-01  0.50000500000E+01  0.50000000000E+01 0.  0.
</event>
<event>
 4    1  0.4967105E-021  0.5000050E+01  0.7818608E-02  0.2136455E+00
        -11   -1    0    0    0    0  0.00000000000E+00  0.00000000000E+00  0.50000499739E+01  0.50000500000E+01  0.51100000000E-03 0. -1.
         11   -1    0    0    0    0 -0.00000000000E+00 -0.00000000000E+00 -0.50000499739E+01  0.50000500000E+01  0.51100000000E-03 0.  1.
         50    1    1    2    0    0 -0.20273402305E-01  0.87792979027E-02 -0.34518961880E-02  0.50000500000E+01  0.50000000000E+01 0. -1.
         50    1    1    2    0    0  0.20273402305E-01 -0.87792979027E-02  0.34518961880E-02  0.50000500000E+01  0.50000000000E+01 0.  1.
</event>
<event>
 4    1  0.4967105E-021  0.5000050E+01  0.7818608E-02  0.2136455E+00
        -11   -1    0    0    0    0  0.00000000000E+00  0.00000000000E+00  0.50000499739E+01  0.50000500000E+01  0.51100000000E-03 0. -1.
         11   -1    0    0    0    0 -0.00000000000E+00 -0.00000000000E+00 -0.50000499739E+01  0.50000500000E+01  0.51100000000E-03 0.  1.
         50    1    1    2    0    0 -0.13740871494E-01 -0.12037430439E-01  0.12895395264E-01  0.50000500000E+01  0.50000000000E+01 0.  0.
         50    1    1    2    0    0  0.13740871494E-01  0.12037430439E-01 -0.12895395264E-01  0.50000500000E+01  0.50000000000E+01 0.  0.
</event>
<event>
 4    1  0.4967105E-021  0.5000050E+01  0.7818608E-02  0.2136455E+00
        -11   -1    0    0    0    0  0.00000000000E+00  0.00000000000E+00  0.50000499739E+01  0.50000500000E+01  0.51100000000E-03 0.  1.
         11   -1    0    0    0    0 -0.00000000000E+00 -0.00000000000E+00 -0.50000499739E+01  0.50000500000E+01  0.51100000000E-03 0. -1.
         50    1    1    2    0    0  0.92295707342E-03  0.93763512193E-02  0.20278922261E-01  0.50000500000E+01  0.50000000000E+01 0.  1.
         50    1    1    2    0    0 -0.92295707342E-03 -0.93763512193E-02 -0.20278922261E-01  0.50000500000E+01  0.50000000000E+01 0.  0.
</event>
<event>
 4    1  0.4967105E-021  0.5000050E+01  0.7818608E-02  0.2136455E+00
        -11   -1    0    0    0    0  0.00000000000E+00  0.00000000000E+00  0.50000499739E+01  0.50000500000E+01  0.51100000000E-03 0.  1.
         11   -1    0    0    0    0 -0.00000000000E+00 -0.00000000000E+00 -0.50000499739E+01  0.50000500000E+01  0.51100000000E-03 0. -1.
         50    1    1    2    0    0  0.12361457469E-01 -0.26584506735E-02  0.18442600393E-01  0.50000500000E+01  0.50000000000E+01 0.  0.
         50    1    1    2    0    0 -0.12361457469E-01  0.26584506735E-02 -0.18442600393E-01  0.50000500000E+01  0.50000000000E+01 0.  0.
</event>
<event>
 4    1  0.4967105E-021  0.5000050E+01  0.7818608E-02  0.2136455E+00
        -11   -1    0    0    0    0  0.00000000000E+00  0.00000000000E+00  0.50000499739E+01  0.50000500000E+01  0.51100000000E-03 0.  1.
         11   -1    0    0    0    0 -0.00000000000E+00 -0.00000000000E+00 -0.50000499739E+01  0.50000500000E+01  0.51100000000E-03 0. -1.
         50    1    1    2    0    0  0.17716032543E-02 -0.15399822851E-01  0.16115501173E-01  0.50000500000E+01  0.50000000000E+01 0.  1.
         50    1    1    2    0    0 -0.17716032543E-02  0.15399822851E-01 -0.16115501173E-01  0.50000500000E+01  0.50000000000E+01 0. -1.
</event>
<event>
 4    1  0.4967105E-021  0.5000050E+01  0.7818608E-02  0.2136455E+00
        -11   -1    0    0    0    0  0.00000000000E+00  0.00000000000E+00  0.50000499739E+01  0.50000500000E+01  0.51100000000E-03 0. -1.
         11   -1    0    0    0    0 -0.00000000000E+00 -0.00000000000E+00 -0.50000499739E+01  0.50000500000E+01  0.51100000000E-03 0.  1.
         50    1    1    2    0    0  0.12530553021E-01 -0.69705651895E-03 -0.18506805591E-01  0.50000500000E+01  0.50000000000E+01 0.  1.
         50    1    1    2    0    0 -0.12530553021E-01  0.69705651895E-03  0.18506805591E-01  0.50000500000E+01  0.50000000000E+01 0.  0.
</event>
<event>
 4    1  0.4967105E-021  0.5000050E+01  0.7818608E-02  0.2136455E+00
        -11   -1    0    0    0    0  0.00000000000E+00  0.00000000000E+00  0.50000499739E+01  0.50000500000E+01  0.51100000000E-03 0. -1.
         11   -1    0    0    0    0 -0.00000000000E+00 -0.00000000000E+00 -0.50000499739E+01  0.50000500000E+01  0.51100000000E-03 0.  1.
         50    1    1    2    0    0  0.43130155432E-02 -0.21910802483E-01  0.11476634859E-02  0.50000500000E+01  0.50000000000E+01 0.  1.
         50    1    1    2    0    0 -0.43130155432E-02  0.21910802483E-01 -0.11476634859E-02  0.50000500000E+01  0.50000000000E+01 0. -1.
</event>
<event>
 4    1  0.4967105E-021  0.5000050E+01  0.7818608E-02  0.2136455E+00
        -11   -1    0    0    0    0  0.00000000000E+00  0.00000000000E+00  0.50000499739E+01  0.50000500000E+01  0.51100000000E-03 0.  1.
         11   -1    0    0    0    0 -0.00000000000E+00 -0.00000000000E+00 -0.50000499739E+01  0.50000500000E+01  0.51100000000E-03 0. -1.
         50    1    1    2    0    0  0.65406800001E-02 -0.72918987717E-02 -0.20101000409E-01  0.50000500000E+01  0.50000000000E+01 0. -1.
         50    1    1    2    0    0 -0.65406800001E-02  0.72918987717E-02  0.20101000409E-01  0.50000500000E+01  0.50000000000E+01 0.  0.
</event>
<event>
 4    1  0.4967105E-021  0.5000050E+01  0.7818608E-02  0.2136455E+00
        -11   -1    0    0    0    0  0.00000000000E+00  0.00000000000E+00  0.50000499739E+01  0.50000500000E+01  0.51100000000E-03 0. -1.
         11   -1    0    0    0    0 -0.00000000000E+00 -0.00000000000E+00 -0.50000499739E+01  0.50000500000E+01  0.51100000000E-03 0.  1.
         50    1    1    2    0    0  0.50999957126E-02  0.21268857678E-01  0.46506168178E-02  0.50000500000E+01  0.50000000000E+01 0. -1.
         50    1    1    2    0    0 -0.50999957126E-02 -0.21268857678E-01 -0.46506168178E-02  0.50000500000E+01  0.50000000000E+01 0.  1.
</event>
<event>
 4    1  0.4967105E-021  0.5000050E+01  0.7818608E-02  0.2136455E+00
        -11   -1    0    0    0    0  0.00000000000E+00  0.00000000000E+00  0.50000499739E+01  0.50000500000E+01  0.51100000000E-03 0.  1.
         11   -1    0    0    0    0 -0.00000000000E+00 -0.00000000000E+00 -0.50000499739E+01  0.50000500000E+01  0.51100000000E-03 0. -1.
         50    1    1    2    0    0  0.21203382855E-01 -0.24298667737E-02 -0.66719414676E-02  0.50000500000E+01  0.50000000000E+01 0.  1.
         50    1    1    2    0    0 -0.21203382855E-01  0.24298667737E-02  0.66719414676E-02  0.50000500000E+01  0.50000000000E+01 0.  0.
</event>
