<event>
 4    1  0.4993983E-021  0.5000050E+01  0.7818608E-02  0.2136455E+00
        -11   -1    0    0    0    0  0.00000000000E+00  0.00000000000E+00  0.50000499739E+01  0.50000500000E+01  0.51100000000E-03 0. -1.
         11   -1    0    0    0    0 -0.00000000000E+00 -0.00000000000E+00 -0.50000499739E+01  0.50000500000E+01  0.51100000000E-03 0.  1.
         50    1    1    2    0    0 -0.36953828914E-02  0.13501741268E-01  0.17437018897E-01  0.50000500000E+01  0.50000000000E+01 0.  0.
         50    1    1    2    0    0  0.36953828914E-02 -0.13501741268E-01 -0.17437018897E-01  0.50000500000E+01  0.50000000000E+01 0.  0.
</event>
<event>
 4    1  0.4993983E-021  0.5000050E+01  0.7818608E-02  0.2136455E+00
        -11   -1    0    0    0    0  0.00000000000E+00  0.00000000000E+00  0.50000499739E+01  0.50000500000E+01  0.51100000000E-03 0. -1.
         11   -1    0    0    0    0 -0.00000000000E+00 -0.00000000000E+00 -0.50000499739E+01  0.50000500000E+01  0.51100000000E-03 0.  1.
         50    1    1    2    0    0 -0.45815700874E-02  0.13941681071E-01 -0.16871314248E-01  0.50000500000E+01  0.50000000000E+01 0.  0.
         50    1    1    2    0    0  0.45815700874E-02 -0.13941681071E-01  0.16871314248E-01  0.50000500000E+01  0.50000000000E+01 0. -1.
</event>
<event>
 4    1  0.4993983E-021  0.5000050E+01  0.7818608E-02  0.2136455E+00
        -11   -1    0    0    0    0  0.00000000000E+00  0.00000000000E+00  0.50000499739E+01  0.50000500000E+01  0.51100000000E-03 0.  1.
         11   -1    0    0    0    0 -0.00000000000E+00 -0.00000000000E+00 -0.50000499739E+01  0.50000500000E+01  0.51100000000E-03 0. -1.
         50    1    1    2    0    0 -0.11405583614E-01 -0.85362966315E-02  0.17235045757E-01  0.50000500000E+01  0.50000000000E+01 0.  1.
         50    1    1    2    0    0  0.11405583614E-01  0.85362966315E-02 -0.17235045757E-01  0.50000500000E+01  0.50000000000E+01 0. -1.
</event>
<event>
 4    1  0.4993983E-021  0.5000050E+01  0.7818608E-02  0.2136455E+00
        -11   -1    0    0    0    0  0.00000000000E+00  0.00000000000E+00  0.50000499739E+01  0.50000500000E+01  0.51100000000E-03 0. -1.
         11   -1    0    0    0    0 -0.00000000000E+00 -0.00000000000E+00 -0.50000499739E+01  0.50000500000E+01  0.51100000000E-03 0.  1.
         50    1    1    2    0    0 -0.68514301982E-02  0.15688111483E-01  0.14385533092E-01  0.50000500000E+01  0.50000000000E+01 0.  1.
         50    1    1    2    0    0  0.68514301982E-02 -0.15688111483E-01 -0.14385533092E-01  0.50000500000E+01  0.50000000000E+01 0.  0.
</event>
<event>
 4    1  0.4993983E-021  0.5000050E+01  0.7818608E-02  0.2136455E+00
        -11   -1    0    0    0    0  0.00000000000E+00  0.00000000000E+00  0.50000499739E+01  0.50000500000E+01  0.51100000000E-03 0. -1.
         11   -1    0    0    0    0 -0.00000000000E+00 -0.00000000000E+00 -0.50000499739E+01  0.50000500000E+01  0.51100000000E-03 0.  1.
         50    1    1    2    0    0 -0.35416892956E-02 -0.13827010067E-01  0.17212574750E-01  0.50000500000E+01  0.50000000000E+01 0. -1.
         50    1    1    2    0    0  0.35416892956E-02  0.13827010067E-01 -0.17212574750E-01  0.50000500000E+01  0.50000000000E+01 0. -1.
</event>
<event>
 4    1  0.4993983E-021  0.5000050E+01  0.7818608E-02  0.2136455E+00
        -11   -1    0    0    0    0  0.00000000000E+00  0.00000000000E+00  0.50000499739E+01  0.50000500000E+01  0.51100000000E-03 0.  1.
         11   -1    0    0    0    0 -0.00000000000E+00 -0.00000000000E+00 -0.50000499739E+01  0.50000500000E+01  0.51100000000E-03 0. -1.
         50    1    1    2    0    0 -0.19456376361E-01 -0.99346940347E-02  0.47700915446E-02  0.50000500000E+01  0.50000000000E+01 0.  1.
         50    1    1    2    0    0  0.19456376361E-01  0.99346940347E-02 -0.47700915446E-02  0.50000500000E+01  0.50000000000E+01 0.  0.
</event>
<event>
 4    1  0.4993983E-021  0.5000050E+01  0.7818608E-02  0.2136455E+00
        -11   -1    0    0    0    0  0.00000000000E+00  0.00000000000E+00  0.50000499739E+01  0.50000500000E+01  0.51100000000E-03 0.  1.
         11   -1    0    0    0    0 -0.00000000000E+00 -0.00000000000E+00 -0.50000499739E+01  0.50000500000E+01  0.51100000000E-03 0. -1.
         50    1    1    2    0    0  0.81345902692E-02  0.20412225958E-01 -0.41439078877E-02  0.50000500000E+01  0.50000000000E+01 0.  0.
         50    1    1    2    0    0 -0.81345902692E-02 -0.20412225958E-01  0.41439078877E-02  0.50000500000E+01  0.50000000000E+01 0.  0.
</event>
<event>
 4    1  0.4993983E-021  0.5000050E+01  0.7818608E-02  0.2136455E+00
        -11   -1    0    0    0    0  0.00000000000E+00  0.00000000000E+00  0.50000499739E+01  0.50000500000E+01  0.51100000000E-03 0.  1.
         11   -1    0    0    0    0 -0.00000000000E+00 -0.00000000000E+00 -0.50000499739E+01  0.50000500000E+01  0.51100000000E-03 0. -1.
         50    1    1    2    0    0 -0.15302797736E-01  0.65245714535E-02 -0.14941781982E-01  0.50000500000E+01  0.50000000000E+01 0.  0.
         50    1    1    2    0    0  0.15302797736E-01 -0.65245714535E-02  0.14941781982E-01  0.50000500000E+01  0.50000000000E+01 0.  0.
</event>
<event>
 4    1  0.4993983E-021  0.5000050E+01  0.7818608E-02  0.2136455E+00
        -11   -1    0    0    0    0  0.00000000000E+00  0.00000000000E+00  0.50000499739E+01  0.50000500000E+01  0.51100000000E-03 0.  1.
         11   -1    0    0    0    0 -0.00000000000E+00 -0.00000000000E+00 -0.50000499739E+01  0.50000500000E+01  0.51100000000E-03 0. -1.
         50    1    1    2    0    0  0.12095553076E-01 -0.51556241882E-02 -0.18086448933E-01  0.50000500000E+01  0.50000000000E+01 0. -1.
         50    1    1    2    0    0 -0.12095553076E-01  0.51556241882E-02  0.18086448933E-01  0.50000500000E+01  0.50000000000E+01 0.  1.
</event>
<event>
 4    1  0.4993983E-021  0.5000050E+01  0.7818608E-02  0.2136455E+00
        -11   -1    0    0    0    0  0.00000000000E+00  0.00000000000E+00  0.50000499739E+01  0.50000500000E+01  0.51100000000E-03 0. -1.
         11   -1    0    0    0    0 -0.00000000000E+00 -0.00000000000E+00 -0.50000499739E+01  0.50000500000E+01  0.51100000000E-03 0.  1.
         50    1    1    2    0    0  0.18767203415E-01  0.12128646108E-01  0.83097505917E-03  0.50000500000E+01  0.50000000000E+01 0.  1.
         50    1    1    2    0    0 -0.18767203415E-01 -0.12128646108E-01 -0.83097505917E-03  0.50000500000E+01  0.50000000000E+01 0.  0.
</event>
<event>
 4    1  0.4993983E-021  0.5000050E+01  0.7818608E-02  0.2136455E+00
        -11   -1    0    0    0    0  0.00000000000E+00  0.00000000000E+00  0.50000499739E+01  0.50000500000E+01  0.51100000000E-03 0.  1.
         11   -1    0    0    0    0 -0.00000000000E+00 -0.00000000000E+00 -0.50000499739E+01  0.50000500000E+01  0.51100000000E-03 0. -1.
         50    1    1    2    0    0  0.22841175362E-02 -0.99118378770E-02  0.19913331639E-01  0.50000500000E+01  0.50000000000E+01 0.  1.
         50    1    1    2    0    0 -0.22841175362E-02  0.99118378770E-02 -0.19913331639E-01  0.50000500000E+01  0.50000000000E+01 0.  0.
</event>
<event>
 4    1  0.4993983E-021  0.5000050E+01  0.7818608E-02  0.2136455E+00
        -11   -1    0    0    0    0  0.00000000000E+00  0.00000000000E+00  0.50000499739E+01  0.50000500000E+01  0.51100000000E-03 0. -1.
         11   -1    0    0    0    0 -0.00000000000E+00 -0.00000000000E+00 -0.50000499739E+01  0.50000500000E+01  0.51100000000E-03 0.  1.
         50    1    1    2    0    0  0.54857009014E-02 -0.15313306368E-01 -0.15343149406E-01  0.50000500000E+01  0.50000000000E+01 0.  0.
         50    1    1    2    0    0 -0.54857009014E-02  0.15313306368E-01  0.15343149406E-01  0.50000500000E+01  0.50000000000E+01 0.  1.
</event>
<event>
 4    1  0.4993983E-021  0.5000050E+01  0.7818608E-02  0.2136455E+00
        -11   -1    0    0    0    0  0.00000000000E+00  0.00000000000E+00  0.50000499739E+01  0.50000500000E+01  0.51100000000E-03 0.  1.
         11   -1    0    0    0    0 -0.00000000000E+00 -0.00000000000E+00 -0.50000499739E+01  0.50000500000E+01  0.51100000000E-03 0. -1.
         50    1    1    2    0    0  0.34130441409E-02 -0.16637846808E-01 -0.14544266337E-01  0.50000500000E+01  0.50000000000E+01 0.  1.
         50    1    1    2    0    0 -0.34130441409E-02  0.16637846808E-01  0.14544266337E-01  0.50000500000E+01  0.50000000000E+01 0.  1.
</event>
<event>
 4    1  0.4993983E-021  0.5000050E+01  0.7818608E-02  0.2136455E+00
        -11   -1    0    0    0    0  0.00000000000E+00  0.00000000000E+00  0.50000499739E+01  0.50000500000E+01  0.51100000000E-03 0. -1.
         11   -1    0    0    0    0 -0.00000000000E+00 -0.00000000000E+00 -0.50000499739E+01  0.50000500000E+01  0.51100000000E-03 0.  1.
         50    1    1    2    0    0 -0.68049874609E-02  0.17126437337E-01 -0.12664114252E-01  0.50000500000E+01  0.50000000000E+01 0.  1.
         50    1    1    2    0    0  0.68049874609E-02 -0.17126437337E-01  0.12664114252E-01  0.50000500000E+01  0.50000000000E+01 0. -1.
</event>
<event>
 4    1  0.4993983E-021  0.5000050E+01  0.7818608E-02  0.2136455E+00
        -11   -1    0    0    0    0  0.00000000000E+00  0.00000000000E+00  0.50000499739E+01  0.50000500000E+01  0.51100000000E-03 0.  1.
         11   -1    0    0    0    0 -0.00000000000E+00 -0.00000000000E+00 -0.50000499739E+01  0.50000500000E+01  0.51100000000E-03 0. -1.
         50    1    1    2    0    0 -0.10897726792E-02 -0.21281652373E-01  0.67754090483E-02  0.50000500000E+01  0.50000000000E+01 0.  1.
         50    1    1    2    0    0  0.10897726792E-02  0.21281652373E-01 -0.67754090483E-02  0.50000500000E+01  0.50000000000E+01 0. -1.
</event>
<event>
 4    1  0.4993983E-021  0.5000050E+01  0.7818608E-02  0.2136455E+00
        -11   -1    0    0    0    0  0.00000000000E+00  0.00000000000E+00  0.50000499739E+01  0.50000500000E+01  0.51100000000E-03 0.  1.
         11   -1    0    0    0    0 -0.00000000000E+00 -0.00000000000E+00 -0.50000499739E+01  0.50000500000E+01  0.51100000000E-03 0. -1.
         50    1    1    2    0    0  0.61629928650E-02  0.19892461341E-01 -0.81430952790E-02  0.50000500000E+01  0.50000000000E+01 0. -1.
         50    1    1    2    0    0 -0.61629928650E-02 -0.19892461341E-01  0.81430952790E-02  0.50000500000E+01  0.50000000000E+01 0.  1.
</event>
<event>
 4    1  0.4993983E-021  0.5000050E+01  0.7818608E-02  0.2136455E+00
        -11   -1    0    0    0    0  0.00000000000E+00  0.00000000000E+00  0.50000499739E+01  0.50000500000E+01  0.51100000000E-03 0. -1.
         11   -1    0    0    0    0 -0.00000000000E+00 -0.00000000000E+00 -0.50000499739E+01  0.50000500000E+01  0.51100000000E-03 0.  1.
         50    1    1    2    0    0  0.19124395986E-01  0.11081919343E-01 -0.33839388077E-02  0.50000500000E+01  0.50000000000E+01 0.  1.
         50    1    1    2    0    0 -0.19124395986E-01 -0.11081919343E-01  0.33839388077E-02  0.50000500000E+01  0.50000000000E+01 0.  1.
</event>
<event>
 4    1  0.4993983E-021  0.5000050E+01  0.7818608E-02  0.2136455E+00
        -11   -1    0    0    0    0  0.00000000000E+00  0.00000000000E+00  0.50000499739E+01  0.50000500000E+01  0.51100000000E-03 0. -1.
         11   -1    0    0    0    0 -0.00000000000E+00 -0.00000000000E+00 -0.50000499739E+01  0.50000500000E+01  0.51100000000E-03 0.  1.
         50    1    1    2    0    0  0.15706732433E-01  0.59017463009E-03 -0.15904488366E-01  0.50000500000E+01  0.50000000000E+01 0.  0.
         50    1    1    2    0    0 -0.15706732433E-01 -0.59017463009E-03  0.15904488366E-01  0.50000500000E+01  0.50000000000E+01 0.  0.
</event>
<event>
 4    1  0.4993983E-021  0.5000050E+01  0.7818608E-02  0.2136455E+00
        -11   -1    0    0    0    0  0.00000000000E+00  0.00000000000E+00  0.50000499739E+01  0.50000500000E+01  0.51100000000E-03 0. -1.
         11   -1    0    0    0    0 -0.00000000000E+00 -0.00000000000E+00 -0.50000499739E+01  0.50000500000E+01  0.51100000000E-03 0.  1.
         50    1    1    2    0    0  0.33486599051E-02  0.12462748414E-01 -0.18261130272E-01  0.50000500000E+01  0.50000000000E+01 0.  0.
         50    1    1    2    0    0 -0.33486599051E-02 -0.12462748414E-01  0.18261130272E-01  0.50000500000E+01  0.50000000000E+01 0.  0.
</event>
<event>
 4    1  0.4993983E-021  0.5000050E+01  0.7818608E-02  0.2136455E+00
        -11   -1    0    0    0    0  0.00000000000E+00  0.00000000000E+00  0.50000499739E+01  0.50000500000E+01  0.51100000000E-03 0.  1.
         11   -1    0    0    0    0 -0.00000000000E+00 -0.00000000000E+00 -0.50000499739E+01  0.50000500000E+01  0.51100000000E-03 0. -1.
         50    1    1    2    0    0  0.57585957763E-02  0.86518924094E-02  0.19798632085E-01  0.50000500000E+01  0.50000000000E+01 0. -1.
         50    1    1    2    0    0 -0.57585957763E-02 -0.86518924094E-02 -0.19798632085E-01  0.50000500000E+01  0.50000000000E+01 0. -1.
</event>
<event>
 4    1  0.4993983E-021  0.5000050E+01  0.7818608E-02  0.2136455E+00
        -11   -1    0    0    0    0  0.00000000000E+00  0.00000000000E+00  0.50000499739E+01  0.50000500000E+01  0.51100000000E-03 0.  1.
         11   -1    0    0    0    0 -0.00000000000E+00 -0.00000000000E+00 -0.50000499739E+01  0.50000500000E+01  0.51100000000E-03 0. -1.
         50    1    1    2    0    0  0.11111465991E-01  0.16295455728E-01 -0.10535461363E-01  0.50000500000E+01  0.50000000000E+01 0.  0.
         50    1    1    2    0    0 -0.11111465991E-01 -0.16295455728E-01  0.10535461363E-01  0.50000500000E+01  0.50000000000E+01 0. -1.
</event>
<event>
 4    1  0.4993983E-021  0.5000050E+01  0.7818608E-02  0.2136455E+00
        -11   -1    0    0    0    0  0.00000000000E+00  0.00000000000E+00  0.50000499739E+01  0.50000500000E+01  0.51100000000E-03 0.  1.
         11   -1    0    0    0    0 -0.00000000000E+00 -0.00000000000E+00 -0.50000499739E+01  0.50000500000E+01  0.51100000000E-03 0. -1.
         50    1    1    2    0    0  0.18245713565E-01 -0.62937097920E-02 -0.11290954501E-01  0.50000500000E+01  0.50000000000E+01 0. -1.
         50    1    1    2    0    0 -0.18245713565E-01  0.62937097920E-02  0.11290954501E-01  0.50000500000E+01  0.50000000000E+01 0.  1.
</event>
<event>
 4    1  0.4993983E-021  0.5000050E+01  0.7818608E-02  0.2136455E+00
        -11   -1    0    0    0    0  0.00000000000E+00  0.00000000000E+00  0.50000499739E+01  0.50000500000E+01  0.51100000000E-03 0.  1.
         11   -1    0    0    0    0 -0.00000000000E+00 -0.00000000000E+00 -0.50000499739E+01  0.50000500000E+01  0.51100000000E-03 0. -1.
         50    1    1    2    0    0 -0.21410676649E-01 -0.29219539246E-02  0.57487051333E-02  0.50000500000E+01  0.50000000000E+01 0.  1.
         50    1    1    2    0    0  0.21410676649E-01  0.29219539246E-02 -0.57487051333E-02  0.50000500000E+01  0.50000000000E+01 0. -1.
</event>
<event>
 4    1  0.4993983E-021  0.5000050E+01  0.7818608E-02  0.2136455E+00
        -11   -1    0    0    0    0  0.00000000000E+00  0.00000000000E+00  0.50000499739E+01  0.50000500000E+01  0.51100000000E-03 0. -1.
         11   -1    0    0    0    0 -0.00000000000E+00 -0.00000000000E+00 -0.50000499739E+01  0.50000500000E+01  0.51100000000E-03 0.  1.
         50    1    1    2    0    0 -0.20674280532E-01  0.13658975842E-03 -0.85180964839E-02  0.50000500000E+01  0.50000000000E+01 0.  1.
         50    1    1    2    0    0  0.20674280532E-01 -0.13658975842E-03  0.85180964839E-02  0.50000500000E+01  0.50000000000E+01 0.  1.
</event>
<event>
 4    1  0.4993983E-021  0.5000050E+01  0.7818608E-02  0.2136455E+00
        -11   -1    0    0    0    0  0.00000000000E+00  0.00000000000E+00  0.50000499739E+01  0.50000500000E+01  0.51100000000E-03 0. -1.
         11   -1    0    0    0    0 -0.00000000000E+00 -0.00000000000E+00 -0.50000499739E+01  0.50000500000E+01  0.51100000000E-03 0.  1.
         50    1    1    2    0    0 -0.81930096714E-02  0.98216445413E-02 -0.18341548218E-01  0.50000500000E+01  0.50000000000E+01 0.  1.
         50    1    1    2    0    0  0.81930096714E-02 -0.98216445413E-02  0.18341548218E-01  0.50000500000E+01  0.50000000000E+01 0.  0.
</event>
<event>
 4    1  0.4993983E-021  0.5000050E+01  0.7818608E-02  0.2136455E+00
        -11   -1    0    0    0    0  0.00000000000E+00  0.00000000000E+00  0.50000499739E+01  0.50000500000E+01  0.51100000000E-03 0.  1.
         11   -1    0    0    0    0 -0.00000000000E+00 -0.00000000000E+00 -0.50000499739E+01  0.50000500000E+01  0.51100000000E-03 0. -1.
         50    1    1    2    0    0 -0.83819087774E-03 -0.21573394353E-01  0.58213909101E-02  0.50000500000E+01  0.50000000000E+01 0.  1.
         50    1    1    2    0    0  0.83819087774E-03  0.21573394353E-01 -0.58213909101E-02  0.50000500000E+01  0.50000000000E+01 0. -1.
</event>
<event>
 4    1  0.4993983E-021  0.5000050E+01  0.7818608E-02  0.2136455E+00
        -11   -1    0    0    0    0  0.00000000000E+00  0.00000000000E+00  0.50000499739E+01  0.50000500000E+01  0.51100000000E-03 0.  1.
         11   -1    0    0    0    0 -0.00000000000E+00 -0.00000000000E+00 -0.50000499739E+01  0.50000500000E+01  0.51100000000E-03 0. -1.
         50    1    1    2    0    0  0.19135966474E-02 -0.22243449634E-01  0.12528352794E-02  0.50000500000E+01  0.50000000000E+01 0.  0.
         50    1    1    2    0    0 -0.19135966474E-02  0.22243449634E-01 -0.12528352794E-02  0.50000500000E+01  0.50000000000E+01 0. -1.
</event>
<event>
 4    1  0.4993983E-021  0.5000050E+01  0.7818608E-02  0.2136455E+00
        -11   -1    0    0    0    0  0.00000000000E+00  0.00000000000E+00  0.50000499739E+01  0.50000500000E+01  0.51100000000E-03 0. -1.
         11   -1    0    0    0    0 -0.00000000000E+00 -0.00000000000E+00 -0.50000499739E+01  0.50000500000E+01  0.51100000000E-03 0.  1.
         50    1    1    2    0    0 -0.11483338072E-01  0.10824656747E-01  0.15841788189E-01  0.50000500000E+01  0.50000000000E+01 0. -1.
         50    1    1    2    0    0  0.11483338072E-01 -0.10824656747E-01 -0.15841788189E-01  0.50000500000E+01  0.50000000000E+01 0.  1.
</event>
<event>
 4    1  0.4993983E-021  0.5000050E+01  0.7818608E-02  0.2136455E+00
        -11   -1    0    0    0    0  0.00000000000E+00  0.00000000000E+00  0.50000499739E+01  0.50000500000E+01  0.51100000000E-03 0. -1.
         11   -1    0    0    0    0 -0.00000000000E+00 -0.00000000000E+00 -0.50000499739E+01  0.50000500000E+01  0.51100000000E-03 0.  1.
         50    1    1    2    0    0 -0.45305648528E-02  0.18955439034E-01  0.10962108061E-01  0.50000500000E+01  0.50000000000E+01 0. -1.
         50    1    1    2    0    0  0.45305648528E-02 -0.18955439034E-01 -0.10962108061E-01  0.50000500000E+01  0.50000000000E+01 0.  1.
</event>
<event>
 4    1  0.4993983E-021  0.5000050E+01  0.7818608E-02  0.2136455E+00
        -11   -1    0    0    0    0  0.00000000000E+00  0.00000000000E+00  0.50000499739E+01  0.50000500000E+01  0.51100000000E-03 0. -1.
         11   -1    0    0    0    0 -0.00000000000E+00 -0.00000000000E+00 -0.50000499739E+01  0.50000500000E+01  0.51100000000E-03 0.  1.
         50    1    1    2    0    0  0.18408621999E-01 -0.67618528163E-02  0.10742554752E-01  0.50000500000E+01  0.50000000000E+01 0.  0.
         50    1    1    2    0    0 -0.18408621999E-01  0.67618528163E-02 -0.10742554752E-01  0.50000500000E+01  0.50000000000E+01 0. -1.
</event>
<event>
 4    1  0.4993983E-021  0.5000050E+01  0.7818608E-02  0.2136455E+00
        -11   -1    0    0    0    0  0.00000000000E+00  0.00000000000E+00  0.50000499739E+01  0.50000500000E+01  0.51100000000E-03 0. -1.
         11   -1    0    0    0    0 -0.00000000000E+00 -0.00000000000E+00 -0.50000499739E+01  0.50000500000E+01  0.51100000000E-03 0.  1.
         50    1    1    2    0    0  0.34556381692E-03 -0.14968948614E-01  0.16607638695E-01  0.50000500000E+01  0.50000000000E+01 0.  1.
         50    1    1    2    0    0 -0.34556381692E-03  0.14968948614E-01 -0.16607638695E-01  0.50000500000E+01  0.50000000000E+01 0.  1.
</event>
<event>
 4    1  0.4993983E-021  0.5000050E+01  0.7818608E-02  0.2136455E+00
        -11   -1    0    0    0    0  0.00000000000E+00  0.00000000000E+00  0.50000499739E+01  0.50000500000E+01  0.51100000000E-03 0. -1.
         11   -1    0    0    0    0 -0.00000000000E+00 -0.00000000000E+00 -0.50000499739E+01  0.50000500000E+01  0.51100000000E-03 0.  1.
         50    1    1    2    0    0  0.22114244667E-01  0.30797266417E-02 -0.12157165059E-02  0.50000500000E+01  0.50000000000E+01 0. -1.
         50    1    1    2    0    0 -0.22114244667E-01 -0.30797266417E-02  0.12157165059E-02  0.50000500000E+01  0.50000000000E+01 0.  1.
</event>
<event>
 4    1  0.4993983E-021  0.5000050E+01  0.7818608E-02  0.2136455E+00
        -11   -1    0    0    0    0  0.00000000000E+00  0.00000000000E+00  0.50000499739E+01  0.50000500000E+01  0.51100000000E-03 0.  1.
         11   -1    0    0    0    0 -0.00000000000E+00 -0.00000000000E+00 -0.50000499739E+01  0.50000500000E+01  0.51100000000E-03 0. -1.
         50    1    1    2    0    0 -0.17821745960E-01  0.13248758344E-01 -0.26188305168E-02  0.50000500000E+01  0.50000000000E+01 0.  0.
         50    1    1    2    0    0  0.17821745960E-01 -0.13248758344E-01  0.26188305168E-02  0.50000500000E+01  0.50000000000E+01 0. -1.
</event>
<event>
 4    1  0.4993983E-021  0.5000050E+01  0.7818608E-02  0.2136455E+00
        -11   -1    0    0    0    0  0.00000000000E+00  0.00000000000E+00  0.50000499739E+01  0.50000500000E+01  0.51100000000E-03 0.  1.
         11   -1    0    0    0    0 -0.00000000000E+00 -0.00000000000E+00 -0.50000499739E+01  0.50000500000E+01  0.51100000000E-03 0. -1.
         50    1    1    2    0    0 -0.12569515883E-01  0.11378558729E-01 -0.14578688957E-01  0.50000500000E+01  0.50000000000E+01 0.  0.
         50    1    1    2    0    0  0.12569515883E-01 -0.11378558729E-01  0.14578688957E-01  0.50000500000E+01  0.50000000000E+01 0. -1.
</event>
<event>
 4    1  0.4993983E-021  0.5000050E+01  0.7818608E-02  0.2136455E+00
        -11   -1    0    0    0    0  0.00000000000E+00  0.00000000000E+00  0.50000499739E+01  0.50000500000E+01  0.51100000000E-03 0.  1.
         11   -1    0    0    0    0 -0.00000000000E+00 -0.00000000000E+00 -0.50000499739E+01  0.50000500000E+01  0.51100000000E-03 0. -1.
         50    1    1    2    0    0 -0.17819891506E-01  0.38590741713E-02 -0.12944555351E-01  0.50000500000E+01  0.50000000000E+01 0. -1.
         50    1    1    2    0    0  0.17819891506E-01 -0.38590741713E-02  0.12944555351E-01  0.50000500000E+01  0.50000000000E+01 0. -1.
</event>
<event>
 4    1  0.4993983E-021  0.5000050E+01  0.7818608E-02  0.2136455E+00
        -11   -1    0    0    0    0  0.00000000000E+00  0.00000000000E+00  0.50000499739E+01  0.50000500000E+01  0.51100000000E-03 0. -1.
         11   -1    0    0    0    0 -0.00000000000E+00 -0.00000000000E+00 -0.50000499739E+01  0.50000500000E+01  0.51100000000E-03 0.  1.
         50    1    1    2    0    0  0.14362075306E-02 -0.21176439388E-01 -0.70354973361E-02  0.50000500000E+01  0.50000000000E+01 0.  1.
         50    1    1    2    0    0 -0.14362075306E-02  0.21176439388E-01  0.70354973361E-02  0.50000500000E+01  0.50000000000E+01 0. -1.
</event>
<event>
 4    1  0.4993983E-021  0.5000050E+01  0.7818608E-02  0.2136455E+00
        -11   -1    0    0    0    0  0.00000000000E+00  0.00000000000E+00  0.50000499739E+01  0.50000500000E+01  0.51100000000E-03 0.  1.
         11   -1    0    0    0    0 -0.00000000000E+00 -0.00000000000E+00 -0.50000499739E+01  0.50000500000E+01  0.51100000000E-03 0. -1.
         50    1    1    2    0    0 -0.58911737739E-02  0.20392542252E-01 -0.70314146562E-02  0.50000500000E+01  0.50000000000E+01 0.  1.
         50    1    1    2    0    0  0.58911737739E-02 -0.20392542252E-01  0.70314146562E-02  0.50000500000E+01  0.50000000000E+01 0.  0.
</event>
<event>
 4    1  0.4993983E-021  0.5000050E+01  0.7818608E-02  0.2136455E+00
        -11   -1    0    0    0    0  0.00000000000E+00  0.00000000000E+00  0.50000499739E+01  0.50000500000E+01  0.51100000000E-03 0.  1.
         11   -1    0    0    0    0 -0.00000000000E+00 -0.00000000000E+00 -0.50000499739E+01  0.50000500000E+01  0.51100000000E-03 0. -1.
         50    1    1    2    0    0 -0.14320788564E-01  0.16833007440E-01 -0.34010844504E-02  0.50000500000E+01  0.50000000000E+01 0. -1.
         50    1    1    2    0    0  0.14320788564E-01 -0.16833007440E-01  0.34010844504E-02  0.50000500000E+01  0.50000000000E+01 0.  1.
</event>
<event>
 4    1  0.4993983E-021  0.5000050E+01  0.7818608E-02  0.2136455E+00
        -11   -1    0    0    0    0  0.00000000000E+00  0.00000000000E+00  0.50000499739E+01  0.50000500000E+01  0.51100000000E-03 0. -1.
         11   -1    0    0    0    0 -0.00000000000E+00 -0.00000000000E+00 -0.50000499739E+01  0.50000500000E+01  0.51100000000E-03 0.  1.
         50    1    1    2    0    0 -0.53562100498E-02  0.17043851788E-01  0.13446956166E-01  0.50000500000E+01  0.50000000000E+01 0. -1.
         50    1    1    2    0    0  0.53562100498E-02 -0.17043851788E-01 -0.13446956166E-01  0.50000500000E+01  0.50000000000E+01 0. -1.
</event>
<event>
 4    1  0.4993983E-021  0.5000050E+01  0.7818608E-02  0.2136455E+00
        -11   -1    0    0    0    0  0.00000000000E+00  0.00000000000E+00  0.50000499739E+01  0.50000500000E+01  0.51100000000E-03 0.  1.
         11   -1    0    0    0    0 -0.00000000000E+00 -0.00000000000E+00 -0.50000499739E+01  0.50000500000E+01  0.51100000000E-03 0. -1.
         50    1    1    2    0    0  0.11916300211E-01  0.29076715563E-03 -0.18918766972E-01  0.50000500000E+01  0.50000000000E+01 0. -1.
         50    1    1    2    0    0 -0.11916300211E-01 -0.29076715563E-03  0.18918766972E-01  0.50000500000E+01  0.50000000000E+01 0.  1.
</event>
<event>
 4    1  0.4993983E-021  0.5000050E+01  0.7818608E-02  0.2136455E+00
        -11   -1    0    0    0    0  0.00000000000E+00  0.00000000000E+00  0.50000499739E+01  0.50000500000E+01  0.51100000000E-03 0.  1.
         11   -1    0    0    0    0 -0.00000000000E+00 -0.00000000000E+00 -0.50000499739E+01  0.50000500000E+01  0.51100000000E-03 0. -1.
         50    1    1    2    0    0  0.65527690627E-02  0.21278150970E-01  0.20746105389E-02  0.50000500000E+01  0.50000000000E+01 0.  1.
         50    1    1    2    0    0 -0.65527690627E-02 -0.21278150970E-01 -0.20746105389E-02  0.50000500000E+01  0.50000000000E+01 0.  0.
</event>
<event>
 4    1  0.4993983E-021  0.5000050E+01  0.7818608E-02  0.2136455E+00
        -11   -1    0    0    0    0  0.00000000000E+00  0.00000000000E+00  0.50000499739E+01  0.50000500000E+01  0.51100000000E-03 0.  1.
         11   -1    0    0    0    0 -0.00000000000E+00 -0.00000000000E+00 -0.50000499739E+01  0.50000500000E+01  0.51100000000E-03 0. -1.
         50    1    1    2    0    0  0.15949123935E-01 -0.65694161057E-02  0.14229220560E-01  0.50000500000E+01  0.50000000000E+01 0.  0.
         50    1    1    2    0    0 -0.15949123935E-01  0.65694161057E-02 -0.14229220560E-01  0.50000500000E+01  0.50000000000E+01 0.  1.
</event>
<event>
 4    1  0.4993983E-021  0.5000050E+01  0.7818608E-02  0.2136455E+00
        -11   -1    0    0    0    0  0.00000000000E+00  0.00000000000E+00  0.50000499739E+01  0.50000500000E+01  0.51100000000E-03 0.  1.
         11   -1    0    0    0    0 -0.00000000000E+00 -0.00000000000E+00 -0.50000499739E+01  0.50000500000E+01  0.51100000000E-03 0. -1.
         50    1    1    2    0    0 -0.13530948607E-01 -0.16623923137E-01 -0.63687604252E-02  0.50000500000E+01  0.50000000000E+01 0.  0.
         50    1    1    2    0    0  0.13530948607E-01  0.16623923137E-01  0.63687604252E-02  0.50000500000E+01  0.50000000000E+01 0. -1.
</event>
<event>
 4    1  0.4993983E-021  0.5000050E+01  0.7818608E-02  0.2136455E+00
        -11   -1    0    0    0    0  0.00000000000E+00  0.00000000000E+00  0.50000499739E+01  0.50000500000E+01  0.51100000000E-03 0. -1.
         11   -1    0    0    0    0 -0.00000000000E+00 -0.00000000000E+00 -0.50000499739E+01  0.50000500000E+01  0.51100000000E-03 0.  1.
         50    1    1    2    0    0  0.19061411037E-03 -0.41700947111E-02  0.21967623366E-01  0.50000500000E+01  0.50000000000E+01 0. -1.
         50    1    1    2    0    0 -0.19061411037E-03  0.41700947111E-02 -0.21967623366E-01  0.50000500000E+01  0.50000000000E+01 0.  0.
</event>
<event>
 4    1  0.4993983E-021  0.5000050E+01  0.7818608E-02  0.2136455E+00
        -11   -1    0    0    0    0  0.00000000000E+00  0.00000000000E+00  0.50000499739E+01  0.50000500000E+01  0.51100000000E-03 0.  1.
         11   -1    0    0    0    0 -0.00000000000E+00 -0.00000000000E+00 -0.50000499739E+01  0.50000500000E+01  0.51100000000E-03 0. -1.
         50    1    1    2    0    0  0.69031266999E-02  0.19885691413E-01 -0.75437801383E-02  0.50000500000E+01  0.50000000000E+01 0. -1.
         50    1    1    2    0    0 -0.69031266999E-02 -0.19885691413E-01  0.75437801383E-02  0.50000500000E+01  0.50000000000E+01 0.  1.
</event>
<event>
 4    1  0.4993983E-021  0.5000050E+01  0.7818608E-02  0.2136455E+00
        -11   -1    0    0    0    0  0.00000000000E+00  0.00000000000E+00  0.50000499739E+01  0.50000500000E+01  0.51100000000E-03 0. -1.
         11   -1    0    0    0    0 -0.00000000000E+00 -0.00000000000E+00 -0.50000499739E+01  0.50000500000E+01  0.51100000000E-03 0.  1.
         50    1    1    2    0    0  0.13737153542E-01  0.15133464476E-02  0.17578478179E-01  0.50000500000E+01  0.50000000000E+01 0. -1.
         50    1    1    2    0    0 -0.13737153542E-01 -0.15133464476E-02 -0.17578478179E-01  0.50000500000E+01  0.50000000000E+01 0.  1.
</event>
<event>
 4    1  0.4993983E-021  0.5000050E+01  0.7818608E-02  0.2136455E+00
        -11   -1    0    0    0    0  0.00000000000E+00  0.00000000000E+00  0.50000499739E+01  0.50000500000E+01  0.51100000000E-03 0. -1.
         11   -1    0    0    0    0 -0.00000000000E+00 -0.00000000000E+00 -0.50000499739E+01  0.50000500000E+01  0.51100000000E-03 0.  1.
         50    1    1    2    0    0 -0.38851354255E-02 -0.89541957705E-02 -0.20117917408E-01  0.50000500000E+01  0.50000000000E+01 0.  1.
         50    1    1    2    0    0  0.38851354255E-02  0.89541957705E-02  0.20117917408E-01  0.50000500000E+01  0.50000000000E+01 0. -1.
</event>
<event>
 4    1  0.4993983E-021  0.5000050E+01  0.7818608E-02  0.2136455E+00
        -11   -1    0    0    0    0  0.00000000000E+00  0.00000000000E+00  0.50000499739E+01  0.50000500000E+01  0.51100000000E-03 0. -1.
         11   -1    0    0    0    0 -0.00000000000E+00 -0.00000000000E+00 -0.50000499739E+01  0.50000500000E+01  0.51100000000E-03 0.  1.
         50    1    1    2    0    0 -0.47920616292E-02  0.10114312211E-01  0.19358185190E-01  0.50000500000E+01  0.50000000000E+01 0.  0.
         50    1    1    2    0    0  0.47920616292E-02 -0.10114312211E-01 -0.19358185190E-01  0.50000500000E+01  0.50000000000E+01 0.  1.
</event>
<event>
 4    1  0.4993983E-021  0.5000050E+01  0.7818608E-02  0.2136455E+00
        -11   -1    0    0    0    0  0.00000000000E+00  0.00000000000E+00  0.50000499739E+01  0.50000500000E+01  0.51100000000E-03 0. -1.
         11   -1    0    0    0    0 -0.00000000000E+00 -0.00000000000E+00 -0.50000499739E+01  0.50000500000E+01  0.51100000000E-03 0.  1.
         50    1    1    2    0    0 -0.14765284799E-01  0.15976865893E-01 -0.51699730217E-02  0.50000500000E+01  0.50000000000E+01 0.  1.
         50    1    1    2    0    0  0.14765284799E-01 -0.15976865893E-01  0.51699730217E-02  0.50000500000E+01  0.50000000000E+01 0. -1.
</event>
<event>
 4    1  0.4993983E-021  0.5000050E+01  0.7818608E-02  0.2136455E+00
        -11   -1    0    0    0    0  0.00000000000E+00  0.00000000000E+00  0.50000499739E+01  0.50000500000E+01  0.51100000000E-03 0.  1.
         11   -1    0    0    0    0 -0.00000000000E+00 -0.00000000000E+00 -0.50000499739E+01  0.50000500000E+01  0.51100000000E-03 0. -1.
         50    1    1    2    0    0 -0.13793084582E-01  0.12892736286E-01 -0.11980428572E-01  0.50000500000E+01  0.50000000000E+01 0. -1.
         50    1    1    2    0    0  0.13793084582E-01 -0.12892736286E-01  0.11980428572E-01  0.50000500000E+01  0.50000000000E+01 0.  1.
</event>
<event>
 4    1  0.4993983E-021  0.5000050E+01  0.7818608E-02  0.2136455E+00
        -11   -1    0    0    0    0  0.00000000000E+00  0.00000000000E+00  0.50000499739E+01  0.50000500000E+01  0.51100000000E-03 0.  1.
         11   -1    0    0    0    0 -0.00000000000E+00 -0.00000000000E+00 -0.50000499739E+01  0.50000500000E+01  0.51100000000E-03 0. -1.
         50    1    1    2    0    0 -0.43719701216E-02  0.21695238382E-01 -0.31945279445E-02  0.50000500000E+01  0.50000000000E+01 0.  1.
         50    1    1    2    0    0  0.43719701216E-02 -0.21695238382E-01  0.31945279445E-02  0.50000500000E+01  0.50000000000E+01 0. -1.
</event>
<event>
 4    1  0.4993983E-021  0.5000050E+01  0.7818608E-02  0.2136455E+00
        -11   -1    0    0    0    0  0.00000000000E+00  0.00000000000E+00  0.50000499739E+01  0.50000500000E+01  0.51100000000E-03 0. -1.
         11   -1    0    0    0    0 -0.00000000000E+00 -0.00000000000E+00 -0.50000499739E+01  0.50000500000E+01  0.51100000000E-03 0.  1.
         50    1    1    2    0    0  0.12492800995E-01 -0.16564811926E-01  0.83390304673E-02  0.50000500000E+01  0.50000000000E+01 0. -1.
         50    1    1    2    0    0 -0.12492800995E-01  0.16564811926E-01 -0.83390304673E-02  0.50000500000E+01  0.50000000000E+01 0.  1.
</event>
<event>
 4    1  0.4993983E-021  0.5000050E+01  0.7818608E-02  0.2136455E+00
        -11   -1    0    0    0    0  0.00000000000E+00  0.00000000000E+00  0.50000499739E+01  0.50000500000E+01  0.51100000000E-03 0.  1.
         11   -1    0    0    0    0 -0.00000000000E+00 -0.00000000000E+00 -0.50000499739E+01  0.50000500000E+01  0.51100000000E-03 0. -1.
         50    1    1    2    0    0 -0.18359260324E-01 -0.10133912620E-01 -0.77616928145E-02  0.50000500000E+01  0.50000000000E+01 0. -1.
         50    1    1    2    0    0  0.18359260324E-01  0.10133912620E-01  0.77616928145E-02  0.50000500000E+01  0.50000000000E+01 0.  1.
</event>
<event>
 4    1  0.4993983E-021  0.5000050E+01  0.7818608E-02  0.2136455E+00
        -11   -1    0    0    0    0  0.00000000000E+00  0.00000000000E+00  0.50000499739E+01  0.50000500000E+01  0.51100000000E-03 0.  1.
         11   -1    0    0    0    0 -0.00000000000E+00 -0.00000000000E+00 -0.50000499739E+01  0.50000500000E+01  0.51100000000E-03 0. -1.
         50    1    1    2    0    0  0.11446843681E-01  0.17587813054E-01 -0.77227651608E-02  0.50000500000E+01  0.50000000000E+01 0.  0.
         50    1    1    2    0    0 -0.11446843681E-01 -0.17587813054E-01  0.77227651608E-02  0.50000500000E+01  0.50000000000E+01 0.  0.
</event>
<event>
 4    1  0.4993983E-021  0.5000050E+01  0.7818608E-02  0.2136455E+00
        -11   -1    0    0    0    0  0.00000000000E+00  0.00000000000E+00  0.50000499739E+01  0.50000500000E+01  0.51100000000E-03 0.  1.
         11   -1    0    0    0    0 -0.00000000000E+00 -0.00000000000E+00 -0.50000499739E+01  0.50000500000E+01  0.51100000000E-03 0. -1.
         50    1    1    2    0    0 -0.19375851028E-02 -0.20998955912E-01  0.74358667669E-02  0.50000500000E+01  0.50000000000E+01 0.  1.
         50    1    1    2    0    0  0.19375851028E-02  0.20998955912E-01 -0.74358667669E-02  0.50000500000E+01  0.50000000000E+01 0.  1.
</event>
<event>
 4    1  0.4993983E-021  0.5000050E+01  0.7818608E-02  0.2136455E+00
        -11   -1    0    0    0    0  0.00000000000E+00  0.00000000000E+00  0.50000499739E+01  0.50000500000E+01  0.51100000000E-03 0.  1.
         11   -1    0    0    0    0 -0.00000000000E+00 -0.00000000000E+00 -0.50000499739E+01  0.50000500000E+01  0.51100000000E-03 0. -1.
         50    1    1    2    0    0 -0.67875541693E-03 -0.32018299899E-02 -0.22119902256E-01  0.50000500000E+01  0.50000000000E+01 0. -1.
         50    1    1    2    0    0  0.67875541693E-03  0.32018299899E-02  0.22119902256E-01  0.50000500000E+01  0.50000000000E+01 0.  0.
</event>
<event>
 4    1  0.4993983E-021  0.5000050E+01  0.7818608E-02  0.2136455E+00
        -11   -1    0    0    0    0  0.00000000000E+00  0.00000000000E+00  0.50000499739E+01  0.50000500000E+01  0.51100000000E-03 0. -1.
         11   -1    0    0    0    0 -0.00000000000E+00 -0.00000000000E+00 -0.50000499739E+01  0.50000500000E+01  0.51100000000E-03 0.  1.
         50    1    1    2    0    0 -0.65834577646E-02  0.12701731451E-01  0.17185069159E-01  0.50000500000E+01  0.50000000000E+01 0. -1.
         50    1    1    2    0    0  0.65834577646E-02 -0.12701731451E-01 -0.17185069159E-01  0.50000500000E+01  0.50000000000E+01 0.  1.
</event>
<event>
 4    1  0.4993983E-021  0.5000050E+01  0.7818608E-02  0.2136455E+00
        -11   -1    0    0    0    0  0.00000000000E+00  0.00000000000E+00  0.50000499739E+01  0.50000500000E+01  0.51100000000E-03 0.  1.
         11   -1    0    0    0    0 -0.00000000000E+00 -0.00000000000E+00 -0.50000499739E+01  0.50000500000E+01  0.51100000000E-03 0. -1.
         50    1    1    2    0    0 -0.92381978537E-02 -0.20149951278E-01 -0.29389902869E-02  0.50000500000E+01  0.50000000000E+01 0.  1.
         50    1    1    2    0    0  0.92381978537E-02  0.20149951278E-01  0.29389902869E-02  0.50000500000E+01  0.50000000000E+01 0.  0.
</event>
<event>
 4    1  0.4993983E-021  0.5000050E+01  0.7818608E-02  0.2136455E+00
        -11   -1    0    0    0    0  0.00000000000E+00  0.00000000000E+00  0.50000499739E+01  0.50000500000E+01  0.51100000000E-03 0.  1.
         11   -1    0    0    0    0 -0.00000000000E+00 -0.00000000000E+00 -0.50000499739E+01  0.50000500000E+01  0.51100000000E-03 0. -1.
         50    1    1    2    0    0 -0.11301224705E-01 -0.16633410161E-01  0.97782660322E-02  0.50000500000E+01  0.50000000000E+01 0.  0.
         50    1    1    2    0    0  0.11301224705E-01  0.16633410161E-01 -0.97782660322E-02  0.50000500000E+01  0.50000000000E+01 0.  0.
</event>
<event>
 4    1  0.4993983E-021  0.5000050E+01  0.7818608E-02  0.2136455E+00
        -11   -1    0    0    0    0  0.00000000000E+00  0.00000000000E+00  0.50000499739E+01  0.50000500000E+01  0.51100000000E-03 0.  1.
         11   -1    0    0    0    0 -0.00000000000E+00 -0.00000000000E+00 -0.50000499739E+01  0.50000500000E+01  0.51100000000E-03 0. -1.
         50    1    1    2    0    0 -0.39409748509E-02 -0.20084043212E-01  0.90056885076E-02  0.50000500000E+01  0.50000000000E+01 0.  0.
         50    1    1    2    0    0  0.39409748509E-02  0.20084043212E-01 -0.90056885076E-02  0.50000500000E+01  0.50000000000E+01 0.  1.
</event>
<event>
 4    1  0.4993983E-021  0.5000050E+01  0.7818608E-02  0.2136455E+00
        -11   -1    0    0    0    0  0.00000000000E+00  0.00000000000E+00  0.50000499739E+01  0.50000500000E+01  0.51100000000E-03 0.  1.
         11   -1    0    0    0    0 -0.00000000000E+00 -0.00000000000E+00 -0.50000499739E+01  0.50000500000E+01  0.51100000000E-03 0. -1.
         50    1    1    2    0    0 -0.18165416240E-01 -0.95999561611E-03 -0.13003790265E-01  0.50000500000E+01  0.50000000000E+01 0. -1.
         50    1    1    2    0    0  0.18165416240E-01  0.95999561611E-03  0.13003790265E-01  0.50000500000E+01  0.50000000000E+01 0.  1.
</event>
<event>
 4    1  0.4993983E-021  0.5000050E+01  0.7818608E-02  0.2136455E+00
        -11   -1    0    0    0    0  0.00000000000E+00  0.00000000000E+00  0.50000499739E+01  0.50000500000E+01  0.51100000000E-03 0.  1.
         11   -1    0    0    0    0 -0.00000000000E+00 -0.00000000000E+00 -0.50000499739E+01  0.50000500000E+01  0.51100000000E-03 0. -1.
         50    1    1    2    0    0 -0.46324991062E-02 -0.17758148885E-01  0.12774607634E-01  0.50000500000E+01  0.50000000000E+01 0. -1.
         50    1    1    2    0    0  0.46324991062E-02  0.17758148885E-01 -0.12774607634E-01  0.50000500000E+01  0.50000000000E+01 0.  0.
</event>
<event>
 4    1  0.4993983E-021  0.5000050E+01  0.7818608E-02  0.2136455E+00
        -11   -1    0    0    0    0  0.00000000000E+00  0.00000000000E+00  0.50000499739E+01  0.50000500000E+01  0.51100000000E-03 0.  1.
         11   -1    0    0    0    0 -0.00000000000E+00 -0.00000000000E+00 -0.50000499739E+01  0.50000500000E+01  0.51100000000E-03 0. -1.
         50    1    1    2    0    0  0.21234199369E-01  0.25432166019E-02 -0.65301857924E-02  0.50000500000E+01  0.50000000000E+01 0. -1.
         50    1    1    2    0    0 -0.21234199369E-01 -0.25432166019E-02  0.65301857924E-02  0.50000500000E+01  0.50000000000E+01 0.  1.
</event>
<event>
 4    1  0.4993983E-021  0.5000050E+01  0.7818608E-02  0.2136455E+00
        -11   -1    0    0    0    0  0.00000000000E+00  0.00000000000E+00  0.50000499739E+01  0.50000500000E+01  0.51100000000E-03 0.  1.
         11   -1    0    0    0    0 -0.00000000000E+00 -0.00000000000E+00 -0.50000499739E+01  0.50000500000E+01  0.51100000000E-03 0. -1.
         50    1    1    2    0    0 -0.14660658614E-01  0.15724664946E-01  0.61483738770E-02  0.50000500000E+01  0.50000000000E+01 0.  0.
         50    1    1    2    0    0  0.14660658614E-01 -0.15724664946E-01 -0.61483738770E-02  0.50000500000E+01  0.50000000000E+01 0.  1.
</event>
<event>
 4    1  0.4993983E-021  0.5000050E+01  0.7818608E-02  0.2136455E+00
        -11   -1    0    0    0    0  0.00000000000E+00  0.00000000000E+00  0.50000499739E+01  0.50000500000E+01  0.51100000000E-03 0. -1.
         11   -1    0    0    0    0 -0.00000000000E+00 -0.00000000000E+00 -0.50000499739E+01  0.50000500000E+01  0.51100000000E-03 0.  1.
         50    1    1    2    0    0  0.13263082610E-01 -0.17597438792E-01  0.37978003671E-02  0.50000500000E+01  0.50000000000E+01 0.  0.
         50    1    1    2    0    0 -0.13263082610E-01  0.17597438792E-01 -0.37978003671E-02  0.50000500000E+01  0.50000000000E+01 0. -1.
</event>
<event>
 4    1  0.4993983E-021  0.5000050E+01  0.7818608E-02  0.2136455E+00
        -11   -1    0    0    0    0  0.00000000000E+00  0.00000000000E+00  0.50000499739E+01  0.50000500000E+01  0.51100000000E-03 0.  1.
         11   -1    0    0    0    0 -0.00000000000E+00 -0.00000000000E+00 -0.50000499739E+01  0.50000500000E+01  0.51100000000E-03 0. -1.
         50    1    1    2    0    0  0.15104902899E-01 -0.90325392646E-02  0.13793391274E-01  0.50000500000E+01  0.50000000000E+01 0.  1.
         50    1    1    2    0    0 -0.15104902899E-01  0.90325392646E-02 -0.13793391274E-01  0.50000500000E+01  0.50000000000E+01 0. -1.
</event>
<event>
 4    1  0.4993983E-021  0.5000050E+01  0.7818608E-02  0.2136455E+00
        -11   -1    0    0    0    0  0.00000000000E+00  0.00000000000E+00  0.50000499739E+01  0.50000500000E+01  0.51100000000E-03 0. -1.
         11   -1    0    0    0    0 -0.00000000000E+00 -0.00000000000E+00 -0.50000499739E+01  0.50000500000E+01  0.51100000000E-03 0.  1.
         50    1    1    2    0    0  0.68949378253E-02 -0.17622250369E-01  0.11912960351E-01  0.50000500000E+01  0.50000000000E+01 0.  0.
         50    1    1    2    0    0 -0.68949378253E-02  0.17622250369E-01 -0.11912960351E-01  0.50000500000E+01  0.50000000000E+01 0.  0.
</event>
<event>
 4    1  0.4993983E-021  0.5000050E+01  0.7818608E-02  0.2136455E+00
        -11   -1    0    0    0    0  0.00000000000E+00  0.00000000000E+00  0.50000499739E+01  0.50000500000E+01  0.51100000000E-03 0. -1.
         11   -1    0    0    0    0 -0.00000000000E+00 -0.00000000000E+00 -0.50000499739E+01  0.50000500000E+01  0.51100000000E-03 0.  1.
         50    1    1    2    0    0 -0.14468745850E-01 -0.12832660650E-01 -0.11224113069E-01  0.50000500000E+01  0.50000000000E+01 0.  1.
         50    1    1    2    0    0  0.14468745850E-01  0.12832660650E-01  0.11224113069E-01  0.50000500000E+01  0.50000000000E+01 0. -1.
</event>
<event>
 4    1  0.4993983E-021  0.5000050E+01  0.7818608E-02  0.2136455E+00
        -11   -1    0    0    0    0  0.00000000000E+00  0.00000000000E+00  0.50000499739E+01  0.50000500000E+01  0.51100000000E-03 0.  1.
         11   -1    0    0    0    0 -0.00000000000E+00 -0.00000000000E+00 -0.50000499739E+01  0.50000500000E+01  0.51100000000E-03 0. -1.
         50    1    1    2    0    0  0.30655033145E-02 -0.87022248684E-02  0.20368516681E-01  0.50000500000E+01  0.50000000000E+01 0.  1.
         50    1    1    2    0    0 -0.30655033145E-02  0.87022248684E-02 -0.20368516681E-01  0.50000500000E+01  0.50000000000E+01 0.  0.
</event>
<event>
 4    1  0.4993983E-021  0.5000050E+01  0.7818608E-02  0.2136455E+00
        -11   -1    0    0    0    0  0.00000000000E+00  0.00000000000E+00  0.50000499739E+01  0.50000500000E+01  0.51100000000E-03 0. -1.
         11   -1    0    0    0    0 -0.00000000000E+00 -0.00000000000E+00 -0.50000499739E+01  0.50000500000E+01  0.51100000000E-03 0.  1.
         50    1    1    2    0    0  0.96581221804E-02 -0.19361027491E-01 -0.56456877738E-02  0.50000500000E+01  0.50000000000E+01 0.  1.
         50    1    1    2    0    0 -0.96581221804E-02  0.19361027491E-01  0.56456877738E-02  0.50000500000E+01  0.50000000000E+01 0. -1.
</event>
<event>
 4    1  0.4993983E-021  0.5000050E+01  0.7818608E-02  0.2136455E+00
        -11   -1    0    0    0    0  0.00000000000E+00  0.00000000000E+00  0.50000499739E+01  0.50000500000E+01  0.51100000000E-03 0. -1.
         11   -1    0    0    0    0 -0.00000000000E+00 -0.00000000000E+00 -0.50000499739E+01  0.50000500000E+01  0.51100000000E-03 0.  1.
         50    1    1    2    0    0 -0.14379145325E-01  0.17029698584E-01 -0.17977891554E-02  0.50000500000E+01  0.50000000000E+01 0.  1.
         50    1    1    2    0    0  0.14379145325E-01 -0.17029698584E-01  0.17977891554E-02  0.50000500000E+01  0.50000000000E+01 0. -1.
</event>
<event>
 4    1  0.4993983E-021  0.5000050E+01  0.7818608E-02  0.2136455E+00
        -11   -1    0    0    0    0  0.00000000000E+00  0.00000000000E+00  0.50000499739E+01  0.50000500000E+01  0.51100000000E-03 0.  1.
         11   -1    0    0    0    0 -0.00000000000E+00 -0.00000000000E+00 -0.50000499739E+01  0.50000500000E+01  0.51100000000E-03 0. -1.
         50    1    1    2    0    0  0.19958451704E-01 -0.72727355093E-02  0.69835538085E-02  0.50000500000E+01  0.50000000000E+01 0. -1.
         50    1    1    2    0    0 -0.19958451704E-01  0.72727355093E-02 -0.69835538085E-02  0.50000500000E+01  0.50000000000E+01 0.  0.
</event>
<event>
 4    1  0.4993983E-021  0.5000050E+01  0.7818608E-02  0.2136455E+00
        -11   -1    0    0    0    0  0.00000000000E+00  0.00000000000E+00  0.50000499739E+01  0.50000500000E+01  0.51100000000E-03 0. -1.
         11   -1    0    0    0    0 -0.00000000000E+00 -0.00000000000E+00 -0.50000499739E+01  0.50000500000E+01  0.51100000000E-03 0.  1.
         50    1    1    2    0    0  0.19089946338E-01 -0.95140114520E-02  0.67126771778E-02  0.50000500000E+01  0.50000000000E+01 0. -1.
         50    1    1    2    0    0 -0.19089946338E-01  0.95140114520E-02 -0.67126771778E-02  0.50000500000E+01  0.50000000000E+01 0.  1.
</event>
<event>
 4    1  0.4993983E-021  0.5000050E+01  0.7818608E-02  0.2136455E+00
        -11   -1    0    0    0    0  0.00000000000E+00  0.00000000000E+00  0.50000499739E+01  0.50000500000E+01  0.51100000000E-03 0.  1.
         11   -1    0    0    0    0 -0.00000000000E+00 -0.00000000000E+00 -0.50000499739E+01  0.50000500000E+01  0.51100000000E-03 0. -1.
         50    1    1    2    0    0 -0.33214629976E-02 -0.16082875507E-01  0.15176017231E-01  0.50000500000E+01  0.50000000000E+01 0.  1.
         50    1    1    2    0    0  0.33214629976E-02  0.16082875507E-01 -0.15176017231E-01  0.50000500000E+01  0.50000000000E+01 0.  1.
</event>
<event>
 4    1  0.4993983E-021  0.5000050E+01  0.7818608E-02  0.2136455E+00
        -11   -1    0    0    0    0  0.00000000000E+00  0.00000000000E+00  0.50000499739E+01  0.50000500000E+01  0.51100000000E-03 0. -1.
         11   -1    0    0    0    0 -0.00000000000E+00 -0.00000000000E+00 -0.50000499739E+01  0.50000500000E+01  0.51100000000E-03 0.  1.
         50    1    1    2    0    0 -0.50163279198E-02 -0.21787061761E-01  0.40360132533E-03  0.50000500000E+01  0.50000000000E+01 0.  1.
         50    1    1    2    0    0  0.50163279198E-02  0.21787061761E-01 -0.40360132533E-03  0.50000500000E+01  0.50000000000E+01 0.  0.
</event>
<event>
 4    1  0.4993983E-021  0.5000050E+01  0.7818608E-02  0.2136455E+00
        -11   -1    0    0    0    0  0.00000000000E+00  0.00000000000E+00  0.50000499739E+01  0.50000500000E+01  0.51100000000E-03 0. -1.
         11   -1    0    0    0    0 -0.00000000000E+00 -0.00000000000E+00 -0.50000499739E+01  0.50000500000E+01  0.51100000000E-03 0.  1.
         50    1    1    2    0    0 -0.34685426295E-02  0.19668501295E-01  0.10055932023E-01  0.50000500000E+01  0.50000000000E+01 0.  0.
         50    1    1    2    0    0  0.34685426295E-02 -0.19668501295E-01 -0.10055932023E-01  0.50000500000E+01  0.50000000000E+01 0.  0.
</event>
<event>
 4    1  0.4993983E-021  0.5000050E+01  0.7818608E-02  0.2136455E+00
        -11   -1    0    0    0    0  0.00000000000E+00  0.00000000000E+00  0.50000499739E+01  0.50000500000E+01  0.51100000000E-03 0.  1.
         11   -1    0    0    0    0 -0.00000000000E+00 -0.00000000000E+00 -0.50000499739E+01  0.50000500000E+01  0.51100000000E-03 0. -1.
         50    1    1    2    0    0  0.14240235691E-01  0.14252957359E-01 -0.96990408785E-02  0.50000500000E+01  0.50000000000E+01 0. -1.
         50    1    1    2    0    0 -0.14240235691E-01 -0.14252957359E-01  0.96990408785E-02  0.50000500000E+01  0.50000000000E+01 0.  1.
</event>
<event>
 4    1  0.4993983E-021  0.5000050E+01  0.7818608E-02  0.2136455E+00
        -11   -1    0    0    0    0  0.00000000000E+00  0.00000000000E+00  0.50000499739E+01  0.50000500000E+01  0.51100000000E-03 0.  1.
         11   -1    0    0    0    0 -0.00000000000E+00 -0.00000000000E+00 -0.50000499739E+01  0.50000500000E+01  0.51100000000E-03 0. -1.
         50    1    1    2    0    0 -0.14103467093E-01  0.16815762031E-01 -0.42807549872E-02  0.50000500000E+01  0.50000000000E+01 0. -1.
         50    1    1    2    0    0  0.14103467093E-01 -0.16815762031E-01  0.42807549872E-02  0.50000500000E+01  0.50000000000E+01 0.  1.
</event>
<event>
 4    1  0.4993983E-021  0.5000050E+01  0.7818608E-02  0.2136455E+00
        -11   -1    0    0    0    0  0.00000000000E+00  0.00000000000E+00  0.50000499739E+01  0.50000500000E+01  0.51100000000E-03 0.  1.
         11   -1    0    0    0    0 -0.00000000000E+00 -0.00000000000E+00 -0.50000499739E+01  0.50000500000E+01  0.51100000000E-03 0. -1.
         50    1    1    2    0    0 -0.16955381382E-01  0.29905343179E-02 -0.14267944725E-01  0.50000500000E+01  0.50000000000E+01 0.  1.
         50    1    1    2    0    0  0.16955381382E-01 -0.29905343179E-02  0.14267944725E-01  0.50000500000E+01  0.50000000000E+01 0.  1.
</event>
<event>
 4    1  0.4993983E-021  0.5000050E+01  0.7818608E-02  0.2136455E+00
        -11   -1    0    0    0    0  0.00000000000E+00  0.00000000000E+00  0.50000499739E+01  0.50000500000E+01  0.51100000000E-03 0.  1.
         11   -1    0    0    0    0 -0.00000000000E+00 -0.00000000000E+00 -0.50000499739E+01  0.50000500000E+01  0.51100000000E-03 0. -1.
         50    1    1    2    0    0  0.22175556591E-01  0.20286967466E-02 -0.20326286851E-02  0.50000500000E+01  0.50000000000E+01 0.  1.
         50    1    1    2    0    0 -0.22175556591E-01 -0.20286967466E-02  0.20326286851E-02  0.50000500000E+01  0.50000000000E+01 0. -1.
</event>
<event>
 4    1  0.4993983E-021  0.5000050E+01  0.7818608E-02  0.2136455E+00
        -11   -1    0    0    0    0  0.00000000000E+00  0.00000000000E+00  0.50000499739E+01  0.50000500000E+01  0.51100000000E-03 0.  1.
         11   -1    0    0    0    0 -0.00000000000E+00 -0.00000000000E+00 -0.50000499739E+01  0.50000500000E+01  0.51100000000E-03 0. -1.
         50    1    1    2    0    0 -0.61782936377E-02  0.15072015053E-01  0.15318797275E-01  0.50000500000E+01  0.50000000000E+01 0.  1.
         50    1    1    2    0    0  0.61782936377E-02 -0.15072015053E-01 -0.15318797275E-01  0.50000500000E+01  0.50000000000E+01 0. -1.
</event>
<event>
 4    1  0.4993983E-021  0.5000050E+01  0.7818608E-02  0.2136455E+00
        -11   -1    0    0    0    0  0.00000000000E+00  0.00000000000E+00  0.50000499739E+01  0.50000500000E+01  0.51100000000E-03 0.  1.
         11   -1    0    0    0    0 -0.00000000000E+00 -0.00000000000E+00 -0.50000499739E+01  0.50000500000E+01  0.51100000000E-03 0. -1.
         50    1    1    2    0    0  0.21571966029E-01  0.20725302394E-02  0.55097549910E-02  0.50000500000E+01  0.50000000000E+01 0. -1.
         50    1    1    2    0    0 -0.21571966029E-01 -0.20725302394E-02 -0.55097549910E-02  0.50000500000E+01  0.50000000000E+01 0.  1.
</event>
<event>
 4    1  0.4993983E-021  0.5000050E+01  0.7818608E-02  0.2136455E+00
        -11   -1    0    0    0    0  0.00000000000E+00  0.00000000000E+00  0.50000499739E+01  0.50000500000E+01  0.51100000000E-03 0. -1.
         11   -1    0    0    0    0 -0.00000000000E+00 -0.00000000000E+00 -0.50000499739E+01  0.50000500000E+01  0.51100000000E-03 0.  1.
         50    1    1    2    0    0 -0.43524376093E-02 -0.99970968484E-02  0.19522214051E-01  0.50000500000E+01  0.50000000000E+01 0. -1.
         50    1    1    2    0    0  0.43524376093E-02  0.99970968484E-02 -0.19522214051E-01  0.50000500000E+01  0.50000000000E+01 0.  1.
</event>
<event>
 4    1  0.4993983E-021  0.5000050E+01  0.7818608E-02  0.2136455E+00
        -11   -1    0    0    0    0  0.00000000000E+00  0.00000000000E+00  0.50000499739E+01  0.50000500000E+01  0.51100000000E-03 0.  1.
         11   -1    0    0    0    0 -0.00000000000E+00 -0.00000000000E+00 -0.50000499739E+01  0.50000500000E+01  0.51100000000E-03 0. -1.
         50    1    1    2    0    0 -0.23235070347E-02 -0.16670169424E-01  0.14721048415E-01  0.50000500000E+01  0.50000000000E+01 0.  1.
         50    1    1    2    0    0  0.23235070347E-02  0.16670169424E-01 -0.14721048415E-01  0.50000500000E+01  0.50000000000E+01 0. -1.
</event>
<event>
 4    1  0.4993983E-021  0.5000050E+01  0.7818608E-02  0.2136455E+00
        -11   -1    0    0    0    0  0.00000000000E+00  0.00000000000E+00  0.50000499739E+01  0.50000500000E+01  0.51100000000E-03 0.  1.
         11   -1    0    0    0    0 -0.00000000000E+00 -0.00000000000E+00 -0.50000499739E+01  0.50000500000E+01  0.51100000000E-03 0. -1.
         50    1    1    2    0    0 -0.17461149417E-01  0.64164251092E-02  0.12407266011E-01  0.50000500000E+01  0.50000000000E+01 0.  0.
         50    1    1    2    0    0  0.17461149417E-01 -0.64164251092E-02 -0.12407266011E-01  0.50000500000E+01  0.50000000000E+01 0.  1.
</event>
<event>
 4    1  0.4993983E-021  0.5000050E+01  0.7818608E-02  0.2136455E+00
        -11   -1    0    0    0    0  0.00000000000E+00  0.00000000000E+00  0.50000499739E+01  0.50000500000E+01  0.51100000000E-03 0. -1.
         11   -1    0    0    0    0 -0.00000000000E+00 -0.00000000000E+00 -0.50000499739E+01  0.50000500000E+01  0.51100000000E-03 0.  1.
         50    1    1    2    0    0  0.60885116352E-02  0.14375027497E-01 -0.16009094619E-01  0.50000500000E+01  0.50000000000E+01 0.  0.
         50    1    1    2    0    0 -0.60885116352E-02 -0.14375027497E-01  0.16009094619E-01  0.50000500000E+01  0.50000000000E+01 0.  0.
</event>
<event>
 4    1  0.4993983E-021  0.5000050E+01  0.7818608E-02  0.2136455E+00
        -11   -1    0    0    0    0  0.00000000000E+00  0.00000000000E+00  0.50000499739E+01  0.50000500000E+01  0.51100000000E-03 0. -1.
         11   -1    0    0    0    0 -0.00000000000E+00 -0.00000000000E+00 -0.50000499739E+01  0.50000500000E+01  0.51100000000E-03 0.  1.
         50    1    1    2    0    0 -0.15596278051E-01  0.59235174768E-02 -0.14888604758E-01  0.50000500000E+01  0.50000000000E+01 0.  1.
         50    1    1    2    0    0  0.15596278051E-01 -0.59235174768E-02  0.14888604758E-01  0.50000500000E+01  0.50000000000E+01 0. -1.
</event>
<event>
 4    1  0.4993983E-021  0.5000050E+01  0.7818608E-02  0.2136455E+00
        -11   -1    0    0    0    0  0.00000000000E+00  0.00000000000E+00  0.50000499739E+01  0.50000500000E+01  0.51100000000E-03 0.  1.
         11   -1    0    0    0    0 -0.00000000000E+00 -0.00000000000E+00 -0.50000499739E+01  0.50000500000E+01  0.51100000000E-03 0. -1.
         50    1    1    2    0    0  0.54753888487E-02  0.22727956647E-02 -0.21560543055E-01  0.50000500000E+01  0.50000000000E+01 0. -1.
         50    1    1    2    0    0 -0.54753888487E-02 -0.22727956647E-02  0.21560543055E-01  0.50000500000E+01  0.50000000000E+01 0.  1.
</event>
<event>
 4    1  0.4993983E-021  0.5000050E+01  0.7818608E-02  0.2136455E+00
        -11   -1    0    0    0    0  0.00000000000E+00  0.00000000000E+00  0.50000499739E+01  0.50000500000E+01  0.51100000000E-03 0. -1.
         11   -1    0    0    0    0 -0.00000000000E+00 -0.00000000000E+00 -0.50000499739E+01  0.50000500000E+01  0.51100000000E-03 0.  1.
         50    1    1    2    0    0  0.20876001265E-01 -0.52148170881E-02  0.60828245008E-02  0.50000500000E+01  0.50000000000E+01 0. -1.
         50    1    1    2    0    0 -0.20876001265E-01  0.52148170881E-02 -0.60828245008E-02  0.50000500000E+01  0.50000000000E+01 0.  1.
</event>
<event>
 4    1  0.4993983E-021  0.5000050E+01  0.7818608E-02  0.2136455E+00
        -11   -1    0    0    0    0  0.00000000000E+00  0.00000000000E+00  0.50000499739E+01  0.50000500000E+01  0.51100000000E-03 0. -1.
         11   -1    0    0    0    0 -0.00000000000E+00 -0.00000000000E+00 -0.50000499739E+01  0.50000500000E+01  0.51100000000E-03 0.  1.
         50    1    1    2    0    0 -0.13340734986E-01 -0.47299603267E-02 -0.17310539141E-01  0.50000500000E+01  0.50000000000E+01 0.  1.
         50    1    1    2    0    0  0.13340734986E-01  0.47299603267E-02  0.17310539141E-01  0.50000500000E+01  0.50000000000E+01 0. -1.
</event>
<event>
 4    1  0.4993983E-021  0.5000050E+01  0.7818608E-02  0.2136455E+00
        -11   -1    0    0    0    0  0.00000000000E+00  0.00000000000E+00  0.50000499739E+01  0.50000500000E+01  0.51100000000E-03 0.  1.
         11   -1    0    0    0    0 -0.00000000000E+00 -0.00000000000E+00 -0.50000499739E+01  0.50000500000E+01  0.51100000000E-03 0. -1.
         50    1    1    2    0    0 -0.16221485596E-01 -0.14793280541E-02 -0.15319187105E-01  0.50000500000E+01  0.50000000000E+01 0. -1.
         50    1    1    2    0    0  0.16221485596E-01  0.14793280541E-02  0.15319187105E-01  0.50000500000E+01  0.50000000000E+01 0.  1.
</event>
<event>
 4    1  0.4993983E-021  0.5000050E+01  0.7818608E-02  0.2136455E+00
        -11   -1    0    0    0    0  0.00000000000E+00  0.00000000000E+00  0.50000499739E+01  0.50000500000E+01  0.51100000000E-03 0. -1.
         11   -1    0    0    0    0 -0.00000000000E+00 -0.00000000000E+00 -0.50000499739E+01  0.50000500000E+01  0.51100000000E-03 0.  1.
         50    1    1    2    0    0  0.75879573114E-02  0.20422228531E-01 -0.50356713240E-02  0.50000500000E+01  0.50000000000E+01 0. -1.
         50    1    1    2    0    0 -0.75879573114E-02 -0.20422228531E-01  0.50356713240E-02  0.50000500000E+01  0.50000000000E+01 0.  0.
</event>
<event>
 4    1  0.4993983E-021  0.5000050E+01  0.7818608E-02  0.2136455E+00
        -11   -1    0    0    0    0  0.00000000000E+00  0.00000000000E+00  0.50000499739E+01  0.50000500000E+01  0.51100000000E-03 0. -1.
         11   -1    0    0    0    0 -0.00000000000E+00 -0.00000000000E+00 -0.50000499739E+01  0.50000500000E+01  0.51100000000E-03 0.  1.
         50    1    1    2    0    0  0.19680019601E-01 -0.82555361202E-02  0.66742379258E-02  0.50000500000E+01  0.50000000000E+01 0. -1.
         50    1    1    2    0    0 -0.19680019601E-01  0.82555361202E-02 -0.66742379258E-02  0.50000500000E+01  0.50000000000E+01 0.  1.
</event>
<event>
 4    1  0.4993983E-021  0.5000050E+01  0.7818608E-02  0.2136455E+00
        -11   -1    0    0    0    0  0.00000000000E+00  0.00000000000E+00  0.50000499739E+01  0.50000500000E+01  0.51100000000E-03 0.  1.
         11   -1    0    0    0    0 -0.00000000000E+00 -0.00000000000E+00 -0.50000499739E+01  0.50000500000E+01  0.51100000000E-03 0. -1.
         50    1    1    2    0    0 -0.12653755078E-01  0.18401589146E-01  0.11253885285E-02  0.50000500000E+01  0.50000000000E+01 0. -1.
         50    1    1    2    0    0  0.12653755078E-01 -0.18401589146E-01 -0.11253885285E-02  0.50000500000E+01  0.50000000000E+01 0.  0.
</event>
<event>
 4    1  0.4993983E-021  0.5000050E+01  0.7818608E-02  0.2136455E+00
        -11   -1    0    0    0    0  0.00000000000E+00  0.00000000000E+00  0.50000499739E+01  0.50000500000E+01  0.51100000000E-03 0. -1.
         11   -1    0    0    0    0 -0.00000000000E+00 -0.00000000000E+00 -0.50000499739E+01  0.50000500000E+01  0.51100000000E-03 0.  1.
         50    1    1    2    0    0 -0.16042323975E-01  0.13686591808E-01  0.74379799780E-02  0.50000500000E+01  0.50000000000E+01 0.  1.
         50    1    1    2    0    0  0.16042323975E-01 -0.13686591808E-01 -0.74379799780E-02  0.50000500000E+01  0.50000000000E+01 0. -1.
</event>
<event>
 4    1  0.4993983E-021  0.5000050E+01  0.7818608E-02  0.2136455E+00
        -11   -1    0    0    0    0  0.00000000000E+00  0.00000000000E+00  0.50000499739E+01  0.50000500000E+01  0.51100000000E-03 0. -1.
         11   -1    0    0    0    0 -0.00000000000E+00 -0.00000000000E+00 -0.50000499739E+01  0.50000500000E+01  0.51100000000E-03 0.  1.
         50    1    1    2    0    0  0.84459727821E-02  0.18188695063E-01  0.98913808771E-02  0.50000500000E+01  0.50000000000E+01 0.  0.
         50    1    1    2    0    0 -0.84459727821E-02 -0.18188695063E-01 -0.98913808771E-02  0.50000500000E+01  0.50000000000E+01 0. -1.
</event>
<event>
 4    1  0.4993983E-021  0.5000050E+01  0.7818608E-02  0.2136455E+00
        -11   -1    0    0    0    0  0.00000000000E+00  0.00000000000E+00  0.50000499739E+01  0.50000500000E+01  0.51100000000E-03 0. -1.
         11   -1    0    0    0    0 -0.00000000000E+00 -0.00000000000E+00 -0.50000499739E+01  0.50000500000E+01  0.51100000000E-03 0.  1.
         50    1    1    2    0    0  0.18435553690E-01 -0.11766193751E-01  0.46572035315E-02  0.50000500000E+01  0.50000000000E+01 0. -1.
         50    1    1    2    0    0 -0.18435553690E-01  0.11766193751E-01 -0.46572035315E-02  0.50000500000E+01  0.50000000000E+01 0.  0.
</event>
<event>
 4    1  0.4993983E-021  0.5000050E+01  0.7818608E-02  0.2136455E+00
        -11   -1    0    0    0    0  0.00000000000E+00  0.00000000000E+00  0.50000499739E+01  0.50000500000E+01  0.51100000000E-03 0.  1.
         11   -1    0    0    0    0 -0.00000000000E+00 -0.00000000000E+00 -0.50000499739E+01  0.50000500000E+01  0.51100000000E-03 0. -1.
         50    1    1    2    0    0 -0.52467788387E-02 -0.15803113851E-01  0.14924322579E-01  0.50000500000E+01  0.50000000000E+01 0.  0.
         50    1    1    2    0    0  0.52467788387E-02  0.15803113851E-01 -0.14924322579E-01  0.50000500000E+01  0.50000000000E+01 0.  0.
</event>
<event>
 4    1  0.4993983E-021  0.5000050E+01  0.7818608E-02  0.2136455E+00
        -11   -1    0    0    0    0  0.00000000000E+00  0.00000000000E+00  0.50000499739E+01  0.50000500000E+01  0.51100000000E-03 0. -1.
         11   -1    0    0    0    0 -0.00000000000E+00 -0.00000000000E+00 -0.50000499739E+01  0.50000500000E+01  0.51100000000E-03 0.  1.
         50    1    1    2    0    0 -0.14727341368E-01 -0.31858855633E-02  0.16521442110E-01  0.50000500000E+01  0.50000000000E+01 0. -1.
         50    1    1    2    0    0  0.14727341368E-01  0.31858855633E-02 -0.16521442110E-01  0.50000500000E+01  0.50000000000E+01 0.  0.
</event>
<event>
 4    1  0.4993983E-021  0.5000050E+01  0.7818608E-02  0.2136455E+00
        -11   -1    0    0    0    0  0.00000000000E+00  0.00000000000E+00  0.50000499739E+01  0.50000500000E+01  0.51100000000E-03 0.  1.
         11   -1    0    0    0    0 -0.00000000000E+00 -0.00000000000E+00 -0.50000499739E+01  0.50000500000E+01  0.51100000000E-03 0. -1.
         50    1    1    2    0    0  0.49505194275E-02 -0.22803101174E-02 -0.21686286984E-01  0.50000500000E+01  0.50000000000E+01 0. -1.
         50    1    1    2    0    0 -0.49505194275E-02  0.22803101174E-02  0.21686286984E-01  0.50000500000E+01  0.50000000000E+01 0.  0.
</event>
<event>
 4    1  0.4993983E-021  0.5000050E+01  0.7818608E-02  0.2136455E+00
        -11   -1    0    0    0    0  0.00000000000E+00  0.00000000000E+00  0.50000499739E+01  0.50000500000E+01  0.51100000000E-03 0. -1.
         11   -1    0    0    0    0 -0.00000000000E+00 -0.00000000000E+00 -0.50000499739E+01  0.50000500000E+01  0.51100000000E-03 0.  1.
         50    1    1    2    0    0 -0.39386231537E-02  0.63062506064E-02 -0.21088407975E-01  0.50000500000E+01  0.50000000000E+01 0.  0.
         50    1    1    2    0    0  0.39386231537E-02 -0.63062506064E-02  0.21088407975E-01  0.50000500000E+01  0.50000000000E+01 0. -1.
</event>
<event>
 4    1  0.4993983E-021  0.5000050E+01  0.7818608E-02  0.2136455E+00
        -11   -1    0    0    0    0  0.00000000000E+00  0.00000000000E+00  0.50000499739E+01  0.50000500000E+01  0.51100000000E-03 0. -1.
         11   -1    0    0    0    0 -0.00000000000E+00 -0.00000000000E+00 -0.50000499739E+01  0.50000500000E+01  0.51100000000E-03 0.  1.
         50    1    1    2    0    0  0.72585145920E-02  0.15314893484E-01  0.14586654980E-01  0.50000500000E+01  0.50000000000E+01 0. -1.
         50    1    1    2    0    0 -0.72585145920E-02 -0.15314893484E-01 -0.14586654980E-01  0.50000500000E+01  0.50000000000E+01 0.  1.
</event>
<event>
 4    1  0.4993983E-021  0.5000050E+01  0.7818608E-02  0.2136455E+00
        -11   -1    0    0    0    0  0.00000000000E+00  0.00000000000E+00  0.50000499739E+01  0.50000500000E+01  0.51100000000E-03 0. -1.
         11   -1    0    0    0    0 -0.00000000000E+00 -0.00000000000E+00 -0.50000499739E+01  0.50000500000E+01  0.51100000000E-03 0.  1.
         50    1    1    2    0    0  0.45083627136E-02 -0.17988803642E-01 -0.12493202519E-01  0.50000500000E+01  0.50000000000E+01 0.  1.
         50    1    1    2    0    0 -0.45083627136E-02  0.17988803642E-01  0.12493202519E-01  0.50000500000E+01  0.50000000000E+01 0. -1.
</event>
<event>
 4    1  0.4993983E-021  0.5000050E+01  0.7818608E-02  0.2136455E+00
        -11   -1    0    0    0    0  0.00000000000E+00  0.00000000000E+00  0.50000499739E+01  0.50000500000E+01  0.51100000000E-03 0.  1.
         11   -1    0    0    0    0 -0.00000000000E+00 -0.00000000000E+00 -0.50000499739E+01  0.50000500000E+01  0.51100000000E-03 0. -1.
         50    1    1    2    0    0 -0.11327856669E-02  0.21963040538E-01 -0.40427894992E-02  0.50000500000E+01  0.50000000000E+01 0.  0.
         50    1    1    2    0    0  0.11327856669E-02 -0.21963040538E-01  0.40427894992E-02  0.50000500000E+01  0.50000000000E+01 0. -1.
</event>
<event>
 4    1  0.4993983E-021  0.5000050E+01  0.7818608E-02  0.2136455E+00
        -11   -1    0    0    0    0  0.00000000000E+00  0.00000000000E+00  0.50000499739E+01  0.50000500000E+01  0.51100000000E-03 0. -1.
         11   -1    0    0    0    0 -0.00000000000E+00 -0.00000000000E+00 -0.50000499739E+01  0.50000500000E+01  0.51100000000E-03 0.  1.
         50    1    1    2    0    0 -0.15037456447E-01 -0.30464407642E-02  0.16266425614E-01  0.50000500000E+01  0.50000000000E+01 0.  1.
         50    1    1    2    0    0  0.15037456447E-01  0.30464407642E-02 -0.16266425614E-01  0.50000500000E+01  0.50000000000E+01 0.  0.
</event>
<event>
 4    1  0.4993983E-021  0.5000050E+01  0.7818608E-02  0.2136455E+00
        -11   -1    0    0    0    0  0.00000000000E+00  0.00000000000E+00  0.50000499739E+01  0.50000500000E+01  0.51100000000E-03 0.  1.
         11   -1    0    0    0    0 -0.00000000000E+00 -0.00000000000E+00 -0.50000499739E+01  0.50000500000E+01  0.51100000000E-03 0. -1.
         50    1    1    2    0    0  0.22273498555E-01  0.11489403325E-02  0.16042749899E-02  0.50000500000E+01  0.50000000000E+01 0. -1.
         50    1    1    2    0    0 -0.22273498555E-01 -0.11489403325E-02 -0.16042749899E-02  0.50000500000E+01  0.50000000000E+01 0.  1.
</event>
<event>
 4    1  0.4993983E-021  0.5000050E+01  0.7818608E-02  0.2136455E+00
        -11   -1    0    0    0    0  0.00000000000E+00  0.00000000000E+00  0.50000499739E+01  0.50000500000E+01  0.51100000000E-03 0. -1.
         11   -1    0    0    0    0 -0.00000000000E+00 -0.00000000000E+00 -0.50000499739E+01  0.50000500000E+01  0.51100000000E-03 0.  1.
         50    1    1    2    0    0 -0.15127286328E-01 -0.87349277564E-02  0.13959539586E-01  0.50000500000E+01  0.50000000000E+01 0.  0.
         50    1    1    2    0    0  0.15127286328E-01  0.87349277564E-02 -0.13959539586E-01  0.50000500000E+01  0.50000000000E+01 0.  0.
</event>
<event>
 4    1  0.4993983E-021  0.5000050E+01  0.7818608E-02  0.2136455E+00
        -11   -1    0    0    0    0  0.00000000000E+00  0.00000000000E+00  0.50000499739E+01  0.50000500000E+01  0.51100000000E-03 0. -1.
         11   -1    0    0    0    0 -0.00000000000E+00 -0.00000000000E+00 -0.50000499739E+01  0.50000500000E+01  0.51100000000E-03 0.  1.
         50    1    1    2    0    0 -0.90096336632E-03 -0.10714721613E-01  0.19605751854E-01  0.50000500000E+01  0.50000000000E+01 0.  0.
         50    1    1    2    0    0  0.90096336632E-03  0.10714721613E-01 -0.19605751854E-01  0.50000500000E+01  0.50000000000E+01 0.  1.
</event>
<event>
 4    1  0.4993983E-021  0.5000050E+01  0.7818608E-02  0.2136455E+00
        -11   -1    0    0    0    0  0.00000000000E+00  0.00000000000E+00  0.50000499739E+01  0.50000500000E+01  0.51100000000E-03 0. -1.
         11   -1    0    0    0    0 -0.00000000000E+00 -0.00000000000E+00 -0.50000499739E+01  0.50000500000E+01  0.51100000000E-03 0.  1.
         50    1    1    2    0    0 -0.72056008930E-02  0.78186667612E-02  0.19671051468E-01  0.50000500000E+01  0.50000000000E+01 0. -1.
         50    1    1    2    0    0  0.72056008930E-02 -0.78186667612E-02 -0.19671051468E-01  0.50000500000E+01  0.50000000000E+01 0.  0.
</event>
<event>
 4    1  0.4993983E-021  0.5000050E+01  0.7818608E-02  0.2136455E+00
        -11   -1    0    0    0    0  0.00000000000E+00  0.00000000000E+00  0.50000499739E+01  0.50000500000E+01  0.51100000000E-03 0.  1.
         11   -1    0    0    0    0 -0.00000000000E+00 -0.00000000000E+00 -0.50000499739E+01  0.50000500000E+01  0.51100000000E-03 0. -1.
         50    1    1    2    0    0  0.22096827125E-01 -0.26047402174E-02  0.22244233887E-02  0.50000500000E+01  0.50000000000E+01 0.  0.
         50    1    1    2    0    0 -0.22096827125E-01  0.26047402174E-02 -0.22244233887E-02  0.50000500000E+01  0.50000000000E+01 0.  1.
</event>
<event>
 4    1  0.4993983E-021  0.5000050E+01  0.7818608E-02  0.2136455E+00
        -11   -1    0    0    0    0  0.00000000000E+00  0.00000000000E+00  0.50000499739E+01  0.50000500000E+01  0.51100000000E-03 0.  1.
         11   -1    0    0    0    0 -0.00000000000E+00 -0.00000000000E+00 -0.50000499739E+01  0.50000500000E+01  0.51100000000E-03 0. -1.
         50    1    1    2    0    0 -0.17085390835E-01  0.31850075775E-02 -0.14069386864E-01  0.50000500000E+01  0.50000000000E+01 0.  1.
         50    1    1    2    0    0  0.17085390835E-01 -0.31850075775E-02  0.14069386864E-01  0.50000500000E+01  0.50000000000E+01 0.  0.
</event>
<event>
 4    1  0.4993983E-021  0.5000050E+01  0.7818608E-02  0.2136455E+00
        -11   -1    0    0    0    0  0.00000000000E+00  0.00000000000E+00  0.50000499739E+01  0.50000500000E+01  0.51100000000E-03 0.  1.
         11   -1    0    0    0    0 -0.00000000000E+00 -0.00000000000E+00 -0.50000499739E+01  0.50000500000E+01  0.51100000000E-03 0. -1.
         50    1    1    2    0    0 -0.32060297900E-02  0.19461983735E-01 -0.10533520878E-01  0.50000500000E+01  0.50000000000E+01 0.  1.
         50    1    1    2    0    0  0.32060297900E-02 -0.19461983735E-01  0.10533520878E-01  0.50000500000E+01  0.50000000000E+01 0.  0.
</event>
<event>
 4    1  0.4993983E-021  0.5000050E+01  0.7818608E-02  0.2136455E+00
        -11   -1    0    0    0    0  0.00000000000E+00  0.00000000000E+00  0.50000499739E+01  0.50000500000E+01  0.51100000000E-03 0. -1.
         11   -1    0    0    0    0 -0.00000000000E+00 -0.00000000000E+00 -0.50000499739E+01  0.50000500000E+01  0.51100000000E-03 0.  1.
         50    1    1    2    0    0 -0.67161062564E-02 -0.17964367575E-01 -0.11496865415E-01  0.50000500000E+01  0.50000000000E+01 0.  1.
         50    1    1    2    0    0  0.67161062564E-02  0.17964367575E-01  0.11496865415E-01  0.50000500000E+01  0.50000000000E+01 0. -1.
</event>
<event>
 4    1  0.4993983E-021  0.5000050E+01  0.7818608E-02  0.2136455E+00
        -11   -1    0    0    0    0  0.00000000000E+00  0.00000000000E+00  0.50000499739E+01  0.50000500000E+01  0.51100000000E-03 0.  1.
         11   -1    0    0    0    0 -0.00000000000E+00 -0.00000000000E+00 -0.50000499739E+01  0.50000500000E+01  0.51100000000E-03 0. -1.
         50    1    1    2    0    0  0.87022847279E-03  0.21800796800E-01  0.48959637735E-02  0.50000500000E+01  0.50000000000E+01 0.  1.
         50    1    1    2    0    0 -0.87022847279E-03 -0.21800796800E-01 -0.48959637735E-02  0.50000500000E+01  0.50000000000E+01 0. -1.
</event>
<event>
 4    1  0.4993983E-021  0.5000050E+01  0.7818608E-02  0.2136455E+00
        -11   -1    0    0    0    0  0.00000000000E+00  0.00000000000E+00  0.50000499739E+01  0.50000500000E+01  0.51100000000E-03 0. -1.
         11   -1    0    0    0    0 -0.00000000000E+00 -0.00000000000E+00 -0.50000499739E+01  0.50000500000E+01  0.51100000000E-03 0.  1.
         50    1    1    2    0    0  0.89368453189E-02  0.20066879792E-01  0.41779936771E-02  0.50000500000E+01  0.50000000000E+01 0. -1.
         50    1    1    2    0    0 -0.89368453189E-02 -0.20066879792E-01 -0.41779936771E-02  0.50000500000E+01  0.50000000000E+01 0.  0.
</event>
<event>
 4    1  0.4993983E-021  0.5000050E+01  0.7818608E-02  0.2136455E+00
        -11   -1    0    0    0    0  0.00000000000E+00  0.00000000000E+00  0.50000499739E+01  0.50000500000E+01  0.51100000000E-03 0.  1.
         11   -1    0    0    0    0 -0.00000000000E+00 -0.00000000000E+00 -0.50000499739E+01  0.50000500000E+01  0.51100000000E-03 0. -1.
         50    1    1    2    0    0 -0.14207101129E-02  0.21037606464E-01 -0.74433323874E-02  0.50000500000E+01  0.50000000000E+01 0.  1.
         50    1    1    2    0    0  0.14207101129E-02 -0.21037606464E-01  0.74433323874E-02  0.50000500000E+01  0.50000000000E+01 0. -1.
</event>
<event>
 4    1  0.4993983E-021  0.5000050E+01  0.7818608E-02  0.2136455E+00
        -11   -1    0    0    0    0  0.00000000000E+00  0.00000000000E+00  0.50000499739E+01  0.50000500000E+01  0.51100000000E-03 0.  1.
         11   -1    0    0    0    0 -0.00000000000E+00 -0.00000000000E+00 -0.50000499739E+01  0.50000500000E+01  0.51100000000E-03 0. -1.
         50    1    1    2    0    0 -0.20360260876E-01 -0.92245264480E-02 -0.60859580820E-03  0.50000500000E+01  0.50000000000E+01 0. -1.
         50    1    1    2    0    0  0.20360260876E-01  0.92245264480E-02  0.60859580820E-03  0.50000500000E+01  0.50000000000E+01 0.  1.
</event>
<event>
 4    1  0.4993983E-021  0.5000050E+01  0.7818608E-02  0.2136455E+00
        -11   -1    0    0    0    0  0.00000000000E+00  0.00000000000E+00  0.50000499739E+01  0.50000500000E+01  0.51100000000E-03 0.  1.
         11   -1    0    0    0    0 -0.00000000000E+00 -0.00000000000E+00 -0.50000499739E+01  0.50000500000E+01  0.51100000000E-03 0. -1.
         50    1    1    2    0    0 -0.49787520790E-02 -0.21798615693E-01 -0.18676616784E-03  0.50000500000E+01  0.50000000000E+01 0.  1.
         50    1    1    2    0    0  0.49787520790E-02  0.21798615693E-01  0.18676616784E-03  0.50000500000E+01  0.50000000000E+01 0. -1.
</event>
<event>
 4    1  0.4993983E-021  0.5000050E+01  0.7818608E-02  0.2136455E+00
        -11   -1    0    0    0    0  0.00000000000E+00  0.00000000000E+00  0.50000499739E+01  0.50000500000E+01  0.51100000000E-03 0.  1.
         11   -1    0    0    0    0 -0.00000000000E+00 -0.00000000000E+00 -0.50000499739E+01  0.50000500000E+01  0.51100000000E-03 0. -1.
         50    1    1    2    0    0 -0.94097405465E-02 -0.16136490605E-01 -0.12291173817E-01  0.50000500000E+01  0.50000000000E+01 0. -1.
         50    1    1    2    0    0  0.94097405465E-02  0.16136490605E-01  0.12291173817E-01  0.50000500000E+01  0.50000000000E+01 0.  1.
</event>
<event>
 4    1  0.4993983E-021  0.5000050E+01  0.7818608E-02  0.2136455E+00
        -11   -1    0    0    0    0  0.00000000000E+00  0.00000000000E+00  0.50000499739E+01  0.50000500000E+01  0.51100000000E-03 0. -1.
         11   -1    0    0    0    0 -0.00000000000E+00 -0.00000000000E+00 -0.50000499739E+01  0.50000500000E+01  0.51100000000E-03 0.  1.
         50    1    1    2    0    0  0.20405605260E-01 -0.91256857688E-02  0.57933859269E-03  0.50000500000E+01  0.50000000000E+01 0. -1.
         50    1    1    2    0    0 -0.20405605260E-01  0.91256857688E-02 -0.57933859269E-03  0.50000500000E+01  0.50000000000E+01 0.  1.
</event>
<event>
 4    1  0.4993983E-021  0.5000050E+01  0.7818608E-02  0.2136455E+00
        -11   -1    0    0    0    0  0.00000000000E+00  0.00000000000E+00  0.50000499739E+01  0.50000500000E+01  0.51100000000E-03 0.  1.
         11   -1    0    0    0    0 -0.00000000000E+00 -0.00000000000E+00 -0.50000499739E+01  0.50000500000E+01  0.51100000000E-03 0. -1.
         50    1    1    2    0    0 -0.37003280675E-03  0.22348238858E-01 -0.64945798661E-03  0.50000500000E+01  0.50000000000E+01 0.  0.
         50    1    1    2    0    0  0.37003280675E-03 -0.22348238858E-01  0.64945798661E-03  0.50000500000E+01  0.50000000000E+01 0. -1.
</event>
<event>
 4    1  0.4993983E-021  0.5000050E+01  0.7818608E-02  0.2136455E+00
        -11   -1    0    0    0    0  0.00000000000E+00  0.00000000000E+00  0.50000499739E+01  0.50000500000E+01  0.51100000000E-03 0. -1.
         11   -1    0    0    0    0 -0.00000000000E+00 -0.00000000000E+00 -0.50000499739E+01  0.50000500000E+01  0.51100000000E-03 0.  1.
         50    1    1    2    0    0 -0.20285627804E-01  0.64754396250E-02  0.68238175726E-02  0.50000500000E+01  0.50000000000E+01 0.  0.
         50    1    1    2    0    0  0.20285627804E-01 -0.64754396250E-02 -0.68238175726E-02  0.50000500000E+01  0.50000000000E+01 0.  1.
</event>
<event>
 4    1  0.4993983E-021  0.5000050E+01  0.7818608E-02  0.2136455E+00
        -11   -1    0    0    0    0  0.00000000000E+00  0.00000000000E+00  0.50000499739E+01  0.50000500000E+01  0.51100000000E-03 0.  1.
         11   -1    0    0    0    0 -0.00000000000E+00 -0.00000000000E+00 -0.50000499739E+01  0.50000500000E+01  0.51100000000E-03 0. -1.
         50    1    1    2    0    0  0.16371278655E-01  0.14528680615E-01 -0.45717802652E-02  0.50000500000E+01  0.50000000000E+01 0. -1.
         50    1    1    2    0    0 -0.16371278655E-01 -0.14528680615E-01  0.45717802652E-02  0.50000500000E+01  0.50000000000E+01 0.  1.
</event>
<event>
 4    1  0.4993983E-021  0.5000050E+01  0.7818608E-02  0.2136455E+00
        -11   -1    0    0    0    0  0.00000000000E+00  0.00000000000E+00  0.50000499739E+01  0.50000500000E+01  0.51100000000E-03 0. -1.
         11   -1    0    0    0    0 -0.00000000000E+00 -0.00000000000E+00 -0.50000499739E+01  0.50000500000E+01  0.51100000000E-03 0.  1.
         50    1    1    2    0    0 -0.17659311400E-01 -0.13300403771E-01  0.33541735793E-02  0.50000500000E+01  0.50000000000E+01 0. -1.
         50    1    1    2    0    0  0.17659311400E-01  0.13300403771E-01 -0.33541735793E-02  0.50000500000E+01  0.50000000000E+01 0.  1.
</event>
<event>
 4    1  0.4993983E-021  0.5000050E+01  0.7818608E-02  0.2136455E+00
        -11   -1    0    0    0    0  0.00000000000E+00  0.00000000000E+00  0.50000499739E+01  0.50000500000E+01  0.51100000000E-03 0. -1.
         11   -1    0    0    0    0 -0.00000000000E+00 -0.00000000000E+00 -0.50000499739E+01  0.50000500000E+01  0.51100000000E-03 0.  1.
         50    1    1    2    0    0  0.15917727770E-01 -0.88703854576E-02 -0.12959348150E-01  0.50000500000E+01  0.50000000000E+01 0.  0.
         50    1    1    2    0    0 -0.15917727770E-01  0.88703854576E-02  0.12959348150E-01  0.50000500000E+01  0.50000000000E+01 0.  0.
</event>
<event>
 4    1  0.4993983E-021  0.5000050E+01  0.7818608E-02  0.2136455E+00
        -11   -1    0    0    0    0  0.00000000000E+00  0.00000000000E+00  0.50000499739E+01  0.50000500000E+01  0.51100000000E-03 0. -1.
         11   -1    0    0    0    0 -0.00000000000E+00 -0.00000000000E+00 -0.50000499739E+01  0.50000500000E+01  0.51100000000E-03 0.  1.
         50    1    1    2    0    0  0.17880258456E-01 -0.19678647463E-02  0.13282558710E-01  0.50000500000E+01  0.50000000000E+01 0.  1.
         50    1    1    2    0    0 -0.17880258456E-01  0.19678647463E-02 -0.13282558710E-01  0.50000500000E+01  0.50000000000E+01 0.  1.
</event>
<event>
 4    1  0.4993983E-021  0.5000050E+01  0.7818608E-02  0.2136455E+00
        -11   -1    0    0    0    0  0.00000000000E+00  0.00000000000E+00  0.50000499739E+01  0.50000500000E+01  0.51100000000E-03 0.  1.
         11   -1    0    0    0    0 -0.00000000000E+00 -0.00000000000E+00 -0.50000499739E+01  0.50000500000E+01  0.51100000000E-03 0. -1.
         50    1    1    2    0    0 -0.39669738695E-02 -0.21074890453E-01 -0.63336096118E-02  0.50000500000E+01  0.50000000000E+01 0.  0.
         50    1    1    2    0    0  0.39669738695E-02  0.21074890453E-01  0.63336096118E-02  0.50000500000E+01  0.50000000000E+01 0. -1.
</event>
<event>
 4    1  0.4993983E-021  0.5000050E+01  0.7818608E-02  0.2136455E+00
        -11   -1    0    0    0    0  0.00000000000E+00  0.00000000000E+00  0.50000499739E+01  0.50000500000E+01  0.51100000000E-03 0. -1.
         11   -1    0    0    0    0 -0.00000000000E+00 -0.00000000000E+00 -0.50000499739E+01  0.50000500000E+01  0.51100000000E-03 0.  1.
         50    1    1    2    0    0 -0.14976908377E-02  0.21863492002E-01 -0.44437753817E-02  0.50000500000E+01  0.50000000000E+01 0.  1.
         50    1    1    2    0    0  0.14976908377E-02 -0.21863492002E-01  0.44437753817E-02  0.50000500000E+01  0.50000000000E+01 0. -1.
</event>
<event>
 4    1  0.4993983E-021  0.5000050E+01  0.7818608E-02  0.2136455E+00
        -11   -1    0    0    0    0  0.00000000000E+00  0.00000000000E+00  0.50000499739E+01  0.50000500000E+01  0.51100000000E-03 0.  1.
         11   -1    0    0    0    0 -0.00000000000E+00 -0.00000000000E+00 -0.50000499739E+01  0.50000500000E+01  0.51100000000E-03 0. -1.
         50    1    1    2    0    0 -0.70666101001E-02  0.42547359578E-02 -0.20783713422E-01  0.50000500000E+01  0.50000000000E+01 0.  0.
         50    1    1    2    0    0  0.70666101001E-02 -0.42547359578E-02  0.20783713422E-01  0.50000500000E+01  0.50000000000E+01 0.  0.
</event>
<event>
 4    1  0.4993983E-021  0.5000050E+01  0.7818608E-02  0.2136455E+00
        -11   -1    0    0    0    0  0.00000000000E+00  0.00000000000E+00  0.50000499739E+01  0.50000500000E+01  0.51100000000E-03 0. -1.
         11   -1    0    0    0    0 -0.00000000000E+00 -0.00000000000E+00 -0.50000499739E+01  0.50000500000E+01  0.51100000000E-03 0.  1.
         50    1    1    2    0    0  0.20209938288E-01 -0.72764662367E-02 -0.62140110621E-02  0.50000500000E+01  0.50000000000E+01 0.  1.
         50    1    1    2    0    0 -0.20209938288E-01  0.72764662367E-02  0.62140110621E-02  0.50000500000E+01  0.50000000000E+01 0. -1.
</event>
<event>
 4    1  0.4993983E-021  0.5000050E+01  0.7818608E-02  0.2136455E+00
        -11   -1    0    0    0    0  0.00000000000E+00  0.00000000000E+00  0.50000499739E+01  0.50000500000E+01  0.51100000000E-03 0.  1.
         11   -1    0    0    0    0 -0.00000000000E+00 -0.00000000000E+00 -0.50000499739E+01  0.50000500000E+01  0.51100000000E-03 0. -1.
         50    1    1    2    0    0 -0.11472851481E-01 -0.12595757339E-01 -0.14481818807E-01  0.50000500000E+01  0.50000000000E+01 0. -1.
         50    1    1    2    0    0  0.11472851481E-01  0.12595757339E-01  0.14481818807E-01  0.50000500000E+01  0.50000000000E+01 0.  0.
</event>
<event>
 4    1  0.4993983E-021  0.5000050E+01  0.7818608E-02  0.2136455E+00
        -11   -1    0    0    0    0  0.00000000000E+00  0.00000000000E+00  0.50000499739E+01  0.50000500000E+01  0.51100000000E-03 0. -1.
         11   -1    0    0    0    0 -0.00000000000E+00 -0.00000000000E+00 -0.50000499739E+01  0.50000500000E+01  0.51100000000E-03 0.  1.
         50    1    1    2    0    0 -0.74585056462E-02 -0.20915693603E-01  0.26281085610E-02  0.50000500000E+01  0.50000000000E+01 0.  1.
         50    1    1    2    0    0  0.74585056462E-02  0.20915693603E-01 -0.26281085610E-02  0.50000500000E+01  0.50000000000E+01 0.  0.
</event>
<event>
 4    1  0.4993983E-021  0.5000050E+01  0.7818608E-02  0.2136455E+00
        -11   -1    0    0    0    0  0.00000000000E+00  0.00000000000E+00  0.50000499739E+01  0.50000500000E+01  0.51100000000E-03 0. -1.
         11   -1    0    0    0    0 -0.00000000000E+00 -0.00000000000E+00 -0.50000499739E+01  0.50000500000E+01  0.51100000000E-03 0.  1.
         50    1    1    2    0    0 -0.10945626502E-01 -0.55450162110E-02  0.18693543155E-01  0.50000500000E+01  0.50000000000E+01 0. -1.
         50    1    1    2    0    0  0.10945626502E-01  0.55450162110E-02 -0.18693543155E-01  0.50000500000E+01  0.50000000000E+01 0.  1.
</event>
<event>
 4    1  0.4993983E-021  0.5000050E+01  0.7818608E-02  0.2136455E+00
        -11   -1    0    0    0    0  0.00000000000E+00  0.00000000000E+00  0.50000499739E+01  0.50000500000E+01  0.51100000000E-03 0.  1.
         11   -1    0    0    0    0 -0.00000000000E+00 -0.00000000000E+00 -0.50000499739E+01  0.50000500000E+01  0.51100000000E-03 0. -1.
         50    1    1    2    0    0  0.10541464740E-01  0.19382316589E-01 -0.36339819427E-02  0.50000500000E+01  0.50000000000E+01 0. -1.
         50    1    1    2    0    0 -0.10541464740E-01 -0.19382316589E-01  0.36339819427E-02  0.50000500000E+01  0.50000000000E+01 0.  0.
</event>
<event>
 4    1  0.4993983E-021  0.5000050E+01  0.7818608E-02  0.2136455E+00
        -11   -1    0    0    0    0  0.00000000000E+00  0.00000000000E+00  0.50000499739E+01  0.50000500000E+01  0.51100000000E-03 0.  1.
         11   -1    0    0    0    0 -0.00000000000E+00 -0.00000000000E+00 -0.50000499739E+01  0.50000500000E+01  0.51100000000E-03 0. -1.
         50    1    1    2    0    0 -0.18677858255E-01 -0.16160062674E-02 -0.12187232448E-01  0.50000500000E+01  0.50000000000E+01 0.  0.
         50    1    1    2    0    0  0.18677858255E-01  0.16160062674E-02  0.12187232448E-01  0.50000500000E+01  0.50000000000E+01 0. -1.
</event>
<event>
 4    1  0.4993983E-021  0.5000050E+01  0.7818608E-02  0.2136455E+00
        -11   -1    0    0    0    0  0.00000000000E+00  0.00000000000E+00  0.50000499739E+01  0.50000500000E+01  0.51100000000E-03 0.  1.
         11   -1    0    0    0    0 -0.00000000000E+00 -0.00000000000E+00 -0.50000499739E+01  0.50000500000E+01  0.51100000000E-03 0. -1.
         50    1    1    2    0    0 -0.17845509045E-01  0.12554819859E-01  0.48904810828E-02  0.50000500000E+01  0.50000000000E+01 0.  1.
         50    1    1    2    0    0  0.17845509045E-01 -0.12554819859E-01 -0.48904810828E-02  0.50000500000E+01  0.50000000000E+01 0. -1.
</event>
<event>
 4    1  0.4993983E-021  0.5000050E+01  0.7818608E-02  0.2136455E+00
        -11   -1    0    0    0    0  0.00000000000E+00  0.00000000000E+00  0.50000499739E+01  0.50000500000E+01  0.51100000000E-03 0.  1.
         11   -1    0    0    0    0 -0.00000000000E+00 -0.00000000000E+00 -0.50000499739E+01  0.50000500000E+01  0.51100000000E-03 0. -1.
         50    1    1    2    0    0  0.18203419292E-01  0.33526396898E-02  0.12545829315E-01  0.50000500000E+01  0.50000000000E+01 0.  1.
         50    1    1    2    0    0 -0.18203419292E-01 -0.33526396898E-02 -0.12545829315E-01  0.50000500000E+01  0.50000000000E+01 0. -1.
</event>
<event>
 4    1  0.4993983E-021  0.5000050E+01  0.7818608E-02  0.2136455E+00
        -11   -1    0    0    0    0  0.00000000000E+00  0.00000000000E+00  0.50000499739E+01  0.50000500000E+01  0.51100000000E-03 0.  1.
         11   -1    0    0    0    0 -0.00000000000E+00 -0.00000000000E+00 -0.50000499739E+01  0.50000500000E+01  0.51100000000E-03 0. -1.
         50    1    1    2    0    0  0.22776391949E-02 -0.22225486381E-01  0.91794054105E-03  0.50000500000E+01  0.50000000000E+01 0.  0.
         50    1    1    2    0    0 -0.22776391949E-02  0.22225486381E-01 -0.91794054105E-03  0.50000500000E+01  0.50000000000E+01 0.  1.
</event>
<event>
 4    1  0.4993983E-021  0.5000050E+01  0.7818608E-02  0.2136455E+00
        -11   -1    0    0    0    0  0.00000000000E+00  0.00000000000E+00  0.50000499739E+01  0.50000500000E+01  0.51100000000E-03 0.  1.
         11   -1    0    0    0    0 -0.00000000000E+00 -0.00000000000E+00 -0.50000499739E+01  0.50000500000E+01  0.51100000000E-03 0. -1.
         50    1    1    2    0    0 -0.37129400176E-02  0.13856637659E-02 -0.22006737885E-01  0.50000500000E+01  0.50000000000E+01 0. -1.
         50    1    1    2    0    0  0.37129400176E-02 -0.13856637659E-02  0.22006737885E-01  0.50000500000E+01  0.50000000000E+01 0.  0.
</event>
<event>
 4    1  0.4993983E-021  0.5000050E+01  0.7818608E-02  0.2136455E+00
        -11   -1    0    0    0    0  0.00000000000E+00  0.00000000000E+00  0.50000499739E+01  0.50000500000E+01  0.51100000000E-03 0.  1.
         11   -1    0    0    0    0 -0.00000000000E+00 -0.00000000000E+00 -0.50000499739E+01  0.50000500000E+01  0.51100000000E-03 0. -1.
         50    1    1    2    0    0 -0.74223775476E-02  0.32412492214E-02  0.20842387460E-01  0.50000500000E+01  0.50000000000E+01 0.  0.
         50    1    1    2    0    0  0.74223775476E-02 -0.32412492214E-02 -0.20842387460E-01  0.50000500000E+01  0.50000000000E+01 0. -1.
</event>
<event>
 4    1  0.4993983E-021  0.5000050E+01  0.7818608E-02  0.2136455E+00
        -11   -1    0    0    0    0  0.00000000000E+00  0.00000000000E+00  0.50000499739E+01  0.50000500000E+01  0.51100000000E-03 0.  1.
         11   -1    0    0    0    0 -0.00000000000E+00 -0.00000000000E+00 -0.50000499739E+01  0.50000500000E+01  0.51100000000E-03 0. -1.
         50    1    1    2    0    0 -0.16046171054E-02 -0.20945380368E-01  0.76628157472E-02  0.50000500000E+01  0.50000000000E+01 0.  1.
         50    1    1    2    0    0  0.16046171054E-02  0.20945380368E-01 -0.76628157472E-02  0.50000500000E+01  0.50000000000E+01 0.  1.
</event>
<event>
 4    1  0.4993983E-021  0.5000050E+01  0.7818608E-02  0.2136455E+00
        -11   -1    0    0    0    0  0.00000000000E+00  0.00000000000E+00  0.50000499739E+01  0.50000500000E+01  0.51100000000E-03 0.  1.
         11   -1    0    0    0    0 -0.00000000000E+00 -0.00000000000E+00 -0.50000499739E+01  0.50000500000E+01  0.51100000000E-03 0. -1.
         50    1    1    2    0    0  0.90342901752E-02  0.36242158435E-02  0.20130801289E-01  0.50000500000E+01  0.50000000000E+01 0.  1.
         50    1    1    2    0    0 -0.90342901752E-02 -0.36242158435E-02 -0.20130801289E-01  0.50000500000E+01  0.50000000000E+01 0. -1.
</event>
<event>
 4    1  0.4993983E-021  0.5000050E+01  0.7818608E-02  0.2136455E+00
        -11   -1    0    0    0    0  0.00000000000E+00  0.00000000000E+00  0.50000499739E+01  0.50000500000E+01  0.51100000000E-03 0.  1.
         11   -1    0    0    0    0 -0.00000000000E+00 -0.00000000000E+00 -0.50000499739E+01  0.50000500000E+01  0.51100000000E-03 0. -1.
         50    1    1    2    0    0 -0.18461136875E-01  0.10753278688E-01  0.65996911102E-02  0.50000500000E+01  0.50000000000E+01 0.  1.
         50    1    1    2    0    0  0.18461136875E-01 -0.10753278688E-01 -0.65996911102E-02  0.50000500000E+01  0.50000000000E+01 0. -1.
</event>
<event>
 4    1  0.4993983E-021  0.5000050E+01  0.7818608E-02  0.2136455E+00
        -11   -1    0    0    0    0  0.00000000000E+00  0.00000000000E+00  0.50000499739E+01  0.50000500000E+01  0.51100000000E-03 0. -1.
         11   -1    0    0    0    0 -0.00000000000E+00 -0.00000000000E+00 -0.50000499739E+01  0.50000500000E+01  0.51100000000E-03 0.  1.
         50    1    1    2    0    0  0.10447469414E-01 -0.64343709258E-04 -0.19769894859E-01  0.50000500000E+01  0.50000000000E+01 0.  1.
         50    1    1    2    0    0 -0.10447469414E-01  0.64343709258E-04  0.19769894859E-01  0.50000500000E+01  0.50000000000E+01 0.  0.
</event>
<event>
 4    1  0.4993983E-021  0.5000050E+01  0.7818608E-02  0.2136455E+00
        -11   -1    0    0    0    0  0.00000000000E+00  0.00000000000E+00  0.50000499739E+01  0.50000500000E+01  0.51100000000E-03 0. -1.
         11   -1    0    0    0    0 -0.00000000000E+00 -0.00000000000E+00 -0.50000499739E+01  0.50000500000E+01  0.51100000000E-03 0.  1.
         50    1    1    2    0    0  0.17566169916E-01 -0.13375016208E-01  0.35413437984E-02  0.50000500000E+01  0.50000000000E+01 0. -1.
         50    1    1    2    0    0 -0.17566169916E-01  0.13375016208E-01 -0.35413437984E-02  0.50000500000E+01  0.50000000000E+01 0.  1.
</event>
<event>
 4    1  0.4993983E-021  0.5000050E+01  0.7818608E-02  0.2136455E+00
        -11   -1    0    0    0    0  0.00000000000E+00  0.00000000000E+00  0.50000499739E+01  0.50000500000E+01  0.51100000000E-03 0.  1.
         11   -1    0    0    0    0 -0.00000000000E+00 -0.00000000000E+00 -0.50000499739E+01  0.50000500000E+01  0.51100000000E-03 0. -1.
         50    1    1    2    0    0 -0.17028942051E-01  0.10359408184E-01 -0.10134115389E-01  0.50000500000E+01  0.50000000000E+01 0. -1.
         50    1    1    2    0    0  0.17028942051E-01 -0.10359408184E-01  0.10134115389E-01  0.50000500000E+01  0.50000000000E+01 0.  1.
</event>
<event>
 4    1  0.4993983E-021  0.5000050E+01  0.7818608E-02  0.2136455E+00
        -11   -1    0    0    0    0  0.00000000000E+00  0.00000000000E+00  0.50000499739E+01  0.50000500000E+01  0.51100000000E-03 0.  1.
         11   -1    0    0    0    0 -0.00000000000E+00 -0.00000000000E+00 -0.50000499739E+01  0.50000500000E+01  0.51100000000E-03 0. -1.
         50    1    1    2    0    0  0.96874954311E-02 -0.78962961215E-03 -0.20137810639E-01  0.50000500000E+01  0.50000000000E+01 0.  0.
         50    1    1    2    0    0 -0.96874954311E-02  0.78962961215E-03  0.20137810639E-01  0.50000500000E+01  0.50000000000E+01 0.  1.
</event>
<event>
 4    1  0.4993983E-021  0.5000050E+01  0.7818608E-02  0.2136455E+00
        -11   -1    0    0    0    0  0.00000000000E+00  0.00000000000E+00  0.50000499739E+01  0.50000500000E+01  0.51100000000E-03 0. -1.
         11   -1    0    0    0    0 -0.00000000000E+00 -0.00000000000E+00 -0.50000499739E+01  0.50000500000E+01  0.51100000000E-03 0.  1.
         50    1    1    2    0    0  0.52893380399E-02 -0.20857546501E-01 -0.60817889667E-02  0.50000500000E+01  0.50000000000E+01 0. -1.
         50    1    1    2    0    0 -0.52893380399E-02  0.20857546501E-01  0.60817889667E-02  0.50000500000E+01  0.50000000000E+01 0.  0.
</event>
<event>
 4    1  0.4993983E-021  0.5000050E+01  0.7818608E-02  0.2136455E+00
        -11   -1    0    0    0    0  0.00000000000E+00  0.00000000000E+00  0.50000499739E+01  0.50000500000E+01  0.51100000000E-03 0.  1.
         11   -1    0    0    0    0 -0.00000000000E+00 -0.00000000000E+00 -0.50000499739E+01  0.50000500000E+01  0.51100000000E-03 0. -1.
         50    1    1    2    0    0 -0.20763239668E-01  0.82060193593E-02 -0.12456423166E-02  0.50000500000E+01  0.50000000000E+01 0.  1.
         50    1    1    2    0    0  0.20763239668E-01 -0.82060193593E-02  0.12456423166E-02  0.50000500000E+01  0.50000000000E+01 0. -1.
</event>
<event>
 4    1  0.4993983E-021  0.5000050E+01  0.7818608E-02  0.2136455E+00
        -11   -1    0    0    0    0  0.00000000000E+00  0.00000000000E+00  0.50000499739E+01  0.50000500000E+01  0.51100000000E-03 0.  1.
         11   -1    0    0    0    0 -0.00000000000E+00 -0.00000000000E+00 -0.50000499739E+01  0.50000500000E+01  0.51100000000E-03 0. -1.
         50    1    1    2    0    0 -0.25594512685E-02 -0.15110596267E-01  0.16282554764E-01  0.50000500000E+01  0.50000000000E+01 0. -1.
         50    1    1    2    0    0  0.25594512685E-02  0.15110596267E-01 -0.16282554764E-01  0.50000500000E+01  0.50000000000E+01 0. -1.
</event>
<event>
 4    1  0.4993983E-021  0.5000050E+01  0.7818608E-02  0.2136455E+00
        -11   -1    0    0    0    0  0.00000000000E+00  0.00000000000E+00  0.50000499739E+01  0.50000500000E+01  0.51100000000E-03 0. -1.
         11   -1    0    0    0    0 -0.00000000000E+00 -0.00000000000E+00 -0.50000499739E+01  0.50000500000E+01  0.51100000000E-03 0.  1.
         50    1    1    2    0    0 -0.14449632862E-01 -0.15541700268E-01  0.70474224318E-02  0.50000500000E+01  0.50000000000E+01 0.  0.
         50    1    1    2    0    0  0.14449632862E-01  0.15541700268E-01 -0.70474224318E-02  0.50000500000E+01  0.50000000000E+01 0. -1.
</event>
<event>
 4    1  0.4993983E-021  0.5000050E+01  0.7818608E-02  0.2136455E+00
        -11   -1    0    0    0    0  0.00000000000E+00  0.00000000000E+00  0.50000499739E+01  0.50000500000E+01  0.51100000000E-03 0. -1.
         11   -1    0    0    0    0 -0.00000000000E+00 -0.00000000000E+00 -0.50000499739E+01  0.50000500000E+01  0.51100000000E-03 0.  1.
         50    1    1    2    0    0 -0.13921926343E-01  0.15521833575E-01 -0.80780659432E-02  0.50000500000E+01  0.50000000000E+01 0.  0.
         50    1    1    2    0    0  0.13921926343E-01 -0.15521833575E-01  0.80780659432E-02  0.50000500000E+01  0.50000000000E+01 0.  1.
</event>
<event>
 4    1  0.4993983E-021  0.5000050E+01  0.7818608E-02  0.2136455E+00
        -11   -1    0    0    0    0  0.00000000000E+00  0.00000000000E+00  0.50000499739E+01  0.50000500000E+01  0.51100000000E-03 0. -1.
         11   -1    0    0    0    0 -0.00000000000E+00 -0.00000000000E+00 -0.50000499739E+01  0.50000500000E+01  0.51100000000E-03 0.  1.
         50    1    1    2    0    0  0.11335462545E-01  0.17925327543E-01  0.70846609902E-02  0.50000500000E+01  0.50000000000E+01 0. -1.
         50    1    1    2    0    0 -0.11335462545E-01 -0.17925327543E-01 -0.70846609902E-02  0.50000500000E+01  0.50000000000E+01 0.  1.
</event>
<event>
 4    1  0.4993983E-021  0.5000050E+01  0.7818608E-02  0.2136455E+00
        -11   -1    0    0    0    0  0.00000000000E+00  0.00000000000E+00  0.50000499739E+01  0.50000500000E+01  0.51100000000E-03 0.  1.
         11   -1    0    0    0    0 -0.00000000000E+00 -0.00000000000E+00 -0.50000499739E+01  0.50000500000E+01  0.51100000000E-03 0. -1.
         50    1    1    2    0    0 -0.88720105477E-02 -0.91433417525E-02  0.18376322549E-01  0.50000500000E+01  0.50000000000E+01 0.  1.
         50    1    1    2    0    0  0.88720105477E-02  0.91433417525E-02 -0.18376322549E-01  0.50000500000E+01  0.50000000000E+01 0.  1.
</event>
<event>
 4    1  0.4993983E-021  0.5000050E+01  0.7818608E-02  0.2136455E+00
        -11   -1    0    0    0    0  0.00000000000E+00  0.00000000000E+00  0.50000499739E+01  0.50000500000E+01  0.51100000000E-03 0.  1.
         11   -1    0    0    0    0 -0.00000000000E+00 -0.00000000000E+00 -0.50000499739E+01  0.50000500000E+01  0.51100000000E-03 0. -1.
         50    1    1    2    0    0  0.13599668914E-01 -0.17553572616E-01  0.26312722855E-02  0.50000500000E+01  0.50000000000E+01 0. -1.
         50    1    1    2    0    0 -0.13599668914E-01  0.17553572616E-01 -0.26312722855E-02  0.50000500000E+01  0.50000000000E+01 0.  0.
</event>
<event>
 4    1  0.4993983E-021  0.5000050E+01  0.7818608E-02  0.2136455E+00
        -11   -1    0    0    0    0  0.00000000000E+00  0.00000000000E+00  0.50000499739E+01  0.50000500000E+01  0.51100000000E-03 0.  1.
         11   -1    0    0    0    0 -0.00000000000E+00 -0.00000000000E+00 -0.50000499739E+01  0.50000500000E+01  0.51100000000E-03 0. -1.
         50    1    1    2    0    0  0.25751018986E-02  0.22096574727E-01 -0.22611358949E-02  0.50000500000E+01  0.50000000000E+01 0.  1.
         50    1    1    2    0    0 -0.25751018986E-02 -0.22096574727E-01  0.22611358949E-02  0.50000500000E+01  0.50000000000E+01 0. -1.
</event>
<event>
 4    1  0.4993983E-021  0.5000050E+01  0.7818608E-02  0.2136455E+00
        -11   -1    0    0    0    0  0.00000000000E+00  0.00000000000E+00  0.50000499739E+01  0.50000500000E+01  0.51100000000E-03 0.  1.
         11   -1    0    0    0    0 -0.00000000000E+00 -0.00000000000E+00 -0.50000499739E+01  0.50000500000E+01  0.51100000000E-03 0. -1.
         50    1    1    2    0    0 -0.10200147490E-01 -0.16283030437E-01 -0.11437762499E-01  0.50000500000E+01  0.50000000000E+01 0.  1.
         50    1    1    2    0    0  0.10200147490E-01  0.16283030437E-01  0.11437762499E-01  0.50000500000E+01  0.50000000000E+01 0.  0.
</event>
<event>
 4    1  0.4993983E-021  0.5000050E+01  0.7818608E-02  0.2136455E+00
        -11   -1    0    0    0    0  0.00000000000E+00  0.00000000000E+00  0.50000499739E+01  0.50000500000E+01  0.51100000000E-03 0.  1.
         11   -1    0    0    0    0 -0.00000000000E+00 -0.00000000000E+00 -0.50000499739E+01  0.50000500000E+01  0.51100000000E-03 0. -1.
         50    1    1    2    0    0  0.21993939829E-01  0.39673129425E-02 -0.72769416615E-03  0.50000500000E+01  0.50000000000E+01 0. -1.
         50    1    1    2    0    0 -0.21993939829E-01 -0.39673129425E-02  0.72769416615E-03  0.50000500000E+01  0.50000000000E+01 0.  0.
</event>
<event>
 4    1  0.4993983E-021  0.5000050E+01  0.7818608E-02  0.2136455E+00
        -11   -1    0    0    0    0  0.00000000000E+00  0.00000000000E+00  0.50000499739E+01  0.50000500000E+01  0.51100000000E-03 0.  1.
         11   -1    0    0    0    0 -0.00000000000E+00 -0.00000000000E+00 -0.50000499739E+01  0.50000500000E+01  0.51100000000E-03 0. -1.
         50    1    1    2    0    0  0.24182555140E-02  0.20925417228E-01 -0.75020966481E-02  0.50000500000E+01  0.50000000000E+01 0. -1.
         50    1    1    2    0    0 -0.24182555140E-02 -0.20925417228E-01  0.75020966481E-02  0.50000500000E+01  0.50000000000E+01 0.  1.
</event>
<event>
 4    1  0.4993983E-021  0.5000050E+01  0.7818608E-02  0.2136455E+00
        -11   -1    0    0    0    0  0.00000000000E+00  0.00000000000E+00  0.50000499739E+01  0.50000500000E+01  0.51100000000E-03 0. -1.
         11   -1    0    0    0    0 -0.00000000000E+00 -0.00000000000E+00 -0.50000499739E+01  0.50000500000E+01  0.51100000000E-03 0.  1.
         50    1    1    2    0    0  0.17010863121E-01  0.14494998340E-01  0.72667667003E-03  0.50000500000E+01  0.50000000000E+01 0.  1.
         50    1    1    2    0    0 -0.17010863121E-01 -0.14494998340E-01 -0.72667667003E-03  0.50000500000E+01  0.50000000000E+01 0.  0.
</event>
<event>
 4    1  0.4993983E-021  0.5000050E+01  0.7818608E-02  0.2136455E+00
        -11   -1    0    0    0    0  0.00000000000E+00  0.00000000000E+00  0.50000499739E+01  0.50000500000E+01  0.51100000000E-03 0. -1.
         11   -1    0    0    0    0 -0.00000000000E+00 -0.00000000000E+00 -0.50000499739E+01  0.50000500000E+01  0.51100000000E-03 0.  1.
         50    1    1    2    0    0  0.28157342339E-02 -0.18622797572E-01  0.12052615953E-01  0.50000500000E+01  0.50000000000E+01 0. -1.
         50    1    1    2    0    0 -0.28157342339E-02  0.18622797572E-01 -0.12052615953E-01  0.50000500000E+01  0.50000000000E+01 0.  1.
</event>
<event>
 4    1  0.4993983E-021  0.5000050E+01  0.7818608E-02  0.2136455E+00
        -11   -1    0    0    0    0  0.00000000000E+00  0.00000000000E+00  0.50000499739E+01  0.50000500000E+01  0.51100000000E-03 0. -1.
         11   -1    0    0    0    0 -0.00000000000E+00 -0.00000000000E+00 -0.50000499739E+01  0.50000500000E+01  0.51100000000E-03 0.  1.
         50    1    1    2    0    0 -0.26122600884E-02  0.80765214009E-02 -0.20686913721E-01  0.50000500000E+01  0.50000000000E+01 0.  1.
         50    1    1    2    0    0  0.26122600884E-02 -0.80765214009E-02  0.20686913721E-01  0.50000500000E+01  0.50000000000E+01 0. -1.
</event>
<event>
 4    1  0.4993983E-021  0.5000050E+01  0.7818608E-02  0.2136455E+00
        -11   -1    0    0    0    0  0.00000000000E+00  0.00000000000E+00  0.50000499739E+01  0.50000500000E+01  0.51100000000E-03 0. -1.
         11   -1    0    0    0    0 -0.00000000000E+00 -0.00000000000E+00 -0.50000499739E+01  0.50000500000E+01  0.51100000000E-03 0.  1.
         50    1    1    2    0    0  0.63925827842E-02  0.19327624823E-01  0.92509623300E-02  0.50000500000E+01  0.50000000000E+01 0. -1.
         50    1    1    2    0    0 -0.63925827842E-02 -0.19327624823E-01 -0.92509623300E-02  0.50000500000E+01  0.50000000000E+01 0.  1.
</event>
<event>
 4    1  0.4993983E-021  0.5000050E+01  0.7818608E-02  0.2136455E+00
        -11   -1    0    0    0    0  0.00000000000E+00  0.00000000000E+00  0.50000499739E+01  0.50000500000E+01  0.51100000000E-03 0.  1.
         11   -1    0    0    0    0 -0.00000000000E+00 -0.00000000000E+00 -0.50000499739E+01  0.50000500000E+01  0.51100000000E-03 0. -1.
         50    1    1    2    0    0  0.21932574783E-01 -0.27989563414E-02  0.33362414190E-02  0.50000500000E+01  0.50000000000E+01 0.  0.
         50    1    1    2    0    0 -0.21932574783E-01  0.27989563414E-02 -0.33362414190E-02  0.50000500000E+01  0.50000000000E+01 0. -1.
</event>
<event>
 4    1  0.4993983E-021  0.5000050E+01  0.7818608E-02  0.2136455E+00
        -11   -1    0    0    0    0  0.00000000000E+00  0.00000000000E+00  0.50000499739E+01  0.50000500000E+01  0.51100000000E-03 0. -1.
         11   -1    0    0    0    0 -0.00000000000E+00 -0.00000000000E+00 -0.50000499739E+01  0.50000500000E+01  0.51100000000E-03 0.  1.
         50    1    1    2    0    0  0.18166321227E-01 -0.11692933888E-01  0.57673711659E-02  0.50000500000E+01  0.50000000000E+01 0. -1.
         50    1    1    2    0    0 -0.18166321227E-01  0.11692933888E-01 -0.57673711659E-02  0.50000500000E+01  0.50000000000E+01 0.  1.
</event>
<event>
 4    1  0.4993983E-021  0.5000050E+01  0.7818608E-02  0.2136455E+00
        -11   -1    0    0    0    0  0.00000000000E+00  0.00000000000E+00  0.50000499739E+01  0.50000500000E+01  0.51100000000E-03 0.  1.
         11   -1    0    0    0    0 -0.00000000000E+00 -0.00000000000E+00 -0.50000499739E+01  0.50000500000E+01  0.51100000000E-03 0. -1.
         50    1    1    2    0    0  0.39996023862E-02  0.10849468232E-02 -0.21973360488E-01  0.50000500000E+01  0.50000000000E+01 0.  1.
         50    1    1    2    0    0 -0.39996023862E-02 -0.10849468232E-02  0.21973360488E-01  0.50000500000E+01  0.50000000000E+01 0.  1.
</event>
<event>
 4    1  0.4993983E-021  0.5000050E+01  0.7818608E-02  0.2136455E+00
        -11   -1    0    0    0    0  0.00000000000E+00  0.00000000000E+00  0.50000499739E+01  0.50000500000E+01  0.51100000000E-03 0.  1.
         11   -1    0    0    0    0 -0.00000000000E+00 -0.00000000000E+00 -0.50000499739E+01  0.50000500000E+01  0.51100000000E-03 0. -1.
         50    1    1    2    0    0  0.18646441148E-01 -0.30246260212E-02  0.11965131422E-01  0.50000500000E+01  0.50000000000E+01 0. -1.
         50    1    1    2    0    0 -0.18646441148E-01  0.30246260212E-02 -0.11965131422E-01  0.50000500000E+01  0.50000000000E+01 0.  1.
</event>
<event>
 4    1  0.4993983E-021  0.5000050E+01  0.7818608E-02  0.2136455E+00
        -11   -1    0    0    0    0  0.00000000000E+00  0.00000000000E+00  0.50000499739E+01  0.50000500000E+01  0.51100000000E-03 0. -1.
         11   -1    0    0    0    0 -0.00000000000E+00 -0.00000000000E+00 -0.50000499739E+01  0.50000500000E+01  0.51100000000E-03 0.  1.
         50    1    1    2    0    0  0.16533324276E-02  0.17934927463E-01  0.13251693054E-01  0.50000500000E+01  0.50000000000E+01 0. -1.
         50    1    1    2    0    0 -0.16533324276E-02 -0.17934927463E-01 -0.13251693054E-01  0.50000500000E+01  0.50000000000E+01 0.  1.
</event>
<event>
 4    1  0.4993983E-021  0.5000050E+01  0.7818608E-02  0.2136455E+00
        -11   -1    0    0    0    0  0.00000000000E+00  0.00000000000E+00  0.50000499739E+01  0.50000500000E+01  0.51100000000E-03 0.  1.
         11   -1    0    0    0    0 -0.00000000000E+00 -0.00000000000E+00 -0.50000499739E+01  0.50000500000E+01  0.51100000000E-03 0. -1.
         50    1    1    2    0    0  0.16202892322E-01  0.15318239599E-01 -0.16793796355E-02  0.50000500000E+01  0.50000000000E+01 0. -1.
         50    1    1    2    0    0 -0.16202892322E-01 -0.15318239599E-01  0.16793796355E-02  0.50000500000E+01  0.50000000000E+01 0.  1.
</event>
<event>
 4    1  0.4993983E-021  0.5000050E+01  0.7818608E-02  0.2136455E+00
        -11   -1    0    0    0    0  0.00000000000E+00  0.00000000000E+00  0.50000499739E+01  0.50000500000E+01  0.51100000000E-03 0. -1.
         11   -1    0    0    0    0 -0.00000000000E+00 -0.00000000000E+00 -0.50000499739E+01  0.50000500000E+01  0.51100000000E-03 0.  1.
         50    1    1    2    0    0  0.11677274577E-01 -0.15624815060E-01  0.10932013209E-01  0.50000500000E+01  0.50000000000E+01 0.  0.
         50    1    1    2    0    0 -0.11677274577E-01  0.15624815060E-01 -0.10932013209E-01  0.50000500000E+01  0.50000000000E+01 0. -1.
</event>
<event>
 4    1  0.4993983E-021  0.5000050E+01  0.7818608E-02  0.2136455E+00
        -11   -1    0    0    0    0  0.00000000000E+00  0.00000000000E+00  0.50000499739E+01  0.50000500000E+01  0.51100000000E-03 0.  1.
         11   -1    0    0    0    0 -0.00000000000E+00 -0.00000000000E+00 -0.50000499739E+01  0.50000500000E+01  0.51100000000E-03 0. -1.
         50    1    1    2    0    0 -0.13026304606E-01 -0.10748367417E-01 -0.14655732195E-01  0.50000500000E+01  0.50000000000E+01 0.  0.
         50    1    1    2    0    0  0.13026304606E-01  0.10748367417E-01  0.14655732195E-01  0.50000500000E+01  0.50000000000E+01 0.  0.
</event>
<event>
 4    1  0.4993983E-021  0.5000050E+01  0.7818608E-02  0.2136455E+00
        -11   -1    0    0    0    0  0.00000000000E+00  0.00000000000E+00  0.50000499739E+01  0.50000500000E+01  0.51100000000E-03 0. -1.
         11   -1    0    0    0    0 -0.00000000000E+00 -0.00000000000E+00 -0.50000499739E+01  0.50000500000E+01  0.51100000000E-03 0.  1.
         50    1    1    2    0    0  0.20940179098E-01  0.49329843036E-02  0.60972998274E-02  0.50000500000E+01  0.50000000000E+01 0. -1.
         50    1    1    2    0    0 -0.20940179098E-01 -0.49329843036E-02 -0.60972998274E-02  0.50000500000E+01  0.50000000000E+01 0.  1.
</event>
<event>
 4    1  0.4993983E-021  0.5000050E+01  0.7818608E-02  0.2136455E+00
        -11   -1    0    0    0    0  0.00000000000E+00  0.00000000000E+00  0.50000499739E+01  0.50000500000E+01  0.51100000000E-03 0.  1.
         11   -1    0    0    0    0 -0.00000000000E+00 -0.00000000000E+00 -0.50000499739E+01  0.50000500000E+01  0.51100000000E-03 0. -1.
         50    1    1    2    0    0 -0.20398931345E-01 -0.87109645346E-02 -0.28293456581E-02  0.50000500000E+01  0.50000000000E+01 0.  0.
         50    1    1    2    0    0  0.20398931345E-01  0.87109645346E-02  0.28293456581E-02  0.50000500000E+01  0.50000000000E+01 0. -1.
</event>
<event>
 4    1  0.4993983E-021  0.5000050E+01  0.7818608E-02  0.2136455E+00
        -11   -1    0    0    0    0  0.00000000000E+00  0.00000000000E+00  0.50000499739E+01  0.50000500000E+01  0.51100000000E-03 0.  1.
         11   -1    0    0    0    0 -0.00000000000E+00 -0.00000000000E+00 -0.50000499739E+01  0.50000500000E+01  0.51100000000E-03 0. -1.
         50    1    1    2    0    0 -0.88011394144E-02 -0.20454882815E-01 -0.20347515877E-02  0.50000500000E+01  0.50000000000E+01 0.  0.
         50    1    1    2    0    0  0.88011394144E-02  0.20454882815E-01  0.20347515877E-02  0.50000500000E+01  0.50000000000E+01 0. -1.
</event>
<event>
 4    1  0.4993983E-021  0.5000050E+01  0.7818608E-02  0.2136455E+00
        -11   -1    0    0    0    0  0.00000000000E+00  0.00000000000E+00  0.50000499739E+01  0.50000500000E+01  0.51100000000E-03 0. -1.
         11   -1    0    0    0    0 -0.00000000000E+00 -0.00000000000E+00 -0.50000499739E+01  0.50000500000E+01  0.51100000000E-03 0.  1.
         50    1    1    2    0    0  0.60948224070E-02 -0.21486762997E-01  0.10838153529E-02  0.50000500000E+01  0.50000000000E+01 0.  0.
         50    1    1    2    0    0 -0.60948224070E-02  0.21486762997E-01 -0.10838153529E-02  0.50000500000E+01  0.50000000000E+01 0. -1.
</event>
<event>
 4    1  0.4993983E-021  0.5000050E+01  0.7818608E-02  0.2136455E+00
        -11   -1    0    0    0    0  0.00000000000E+00  0.00000000000E+00  0.50000499739E+01  0.50000500000E+01  0.51100000000E-03 0. -1.
         11   -1    0    0    0    0 -0.00000000000E+00 -0.00000000000E+00 -0.50000499739E+01  0.50000500000E+01  0.51100000000E-03 0.  1.
         50    1    1    2    0    0  0.21095282668E-01 -0.10553776033E-02 -0.73401449078E-02  0.50000500000E+01  0.50000000000E+01 0.  1.
         50    1    1    2    0    0 -0.21095282668E-01  0.10553776033E-02  0.73401449078E-02  0.50000500000E+01  0.50000000000E+01 0. -1.
</event>
<event>
 4    1  0.4993983E-021  0.5000050E+01  0.7818608E-02  0.2136455E+00
        -11   -1    0    0    0    0  0.00000000000E+00  0.00000000000E+00  0.50000499739E+01  0.50000500000E+01  0.51100000000E-03 0. -1.
         11   -1    0    0    0    0 -0.00000000000E+00 -0.00000000000E+00 -0.50000499739E+01  0.50000500000E+01  0.51100000000E-03 0.  1.
         50    1    1    2    0    0 -0.74861736705E-02  0.45108763570E-02 -0.20581829323E-01  0.50000500000E+01  0.50000000000E+01 0.  0.
         50    1    1    2    0    0  0.74861736705E-02 -0.45108763570E-02  0.20581829323E-01  0.50000500000E+01  0.50000000000E+01 0.  0.
</event>
<event>
 4    1  0.4993983E-021  0.5000050E+01  0.7818608E-02  0.2136455E+00
        -11   -1    0    0    0    0  0.00000000000E+00  0.00000000000E+00  0.50000499739E+01  0.50000500000E+01  0.51100000000E-03 0.  1.
         11   -1    0    0    0    0 -0.00000000000E+00 -0.00000000000E+00 -0.50000499739E+01  0.50000500000E+01  0.51100000000E-03 0. -1.
         50    1    1    2    0    0  0.28483756787E-02  0.19278931147E-02 -0.22094625684E-01  0.50000500000E+01  0.50000000000E+01 0. -1.
         50    1    1    2    0    0 -0.28483756787E-02 -0.19278931147E-02  0.22094625684E-01  0.50000500000E+01  0.50000000000E+01 0.  0.
</event>
<event>
 4    1  0.4993983E-021  0.5000050E+01  0.7818608E-02  0.2136455E+00
        -11   -1    0    0    0    0  0.00000000000E+00  0.00000000000E+00  0.50000499739E+01  0.50000500000E+01  0.51100000000E-03 0. -1.
         11   -1    0    0    0    0 -0.00000000000E+00 -0.00000000000E+00 -0.50000499739E+01  0.50000500000E+01  0.51100000000E-03 0.  1.
         50    1    1    2    0    0  0.18668726875E-01 -0.10238713731E-01 -0.68300715965E-02  0.50000500000E+01  0.50000000000E+01 0. -1.
         50    1    1    2    0    0 -0.18668726875E-01  0.10238713731E-01  0.68300715965E-02  0.50000500000E+01  0.50000000000E+01 0.  0.
</event>
<event>
 4    1  0.4993983E-021  0.5000050E+01  0.7818608E-02  0.2136455E+00
        -11   -1    0    0    0    0  0.00000000000E+00  0.00000000000E+00  0.50000499739E+01  0.50000500000E+01  0.51100000000E-03 0. -1.
         11   -1    0    0    0    0 -0.00000000000E+00 -0.00000000000E+00 -0.50000499739E+01  0.50000500000E+01  0.51100000000E-03 0.  1.
         50    1    1    2    0    0 -0.15552232773E-01  0.14932992022E-01 -0.59275884697E-02  0.50000500000E+01  0.50000000000E+01 0.  1.
         50    1    1    2    0    0  0.15552232773E-01 -0.14932992022E-01  0.59275884697E-02  0.50000500000E+01  0.50000000000E+01 0. -1.
</event>
<event>
 4    1  0.4993983E-021  0.5000050E+01  0.7818608E-02  0.2136455E+00
        -11   -1    0    0    0    0  0.00000000000E+00  0.00000000000E+00  0.50000499739E+01  0.50000500000E+01  0.51100000000E-03 0.  1.
         11   -1    0    0    0    0 -0.00000000000E+00 -0.00000000000E+00 -0.50000499739E+01  0.50000500000E+01  0.51100000000E-03 0. -1.
         50    1    1    2    0    0  0.19480826634E-01  0.10973443877E-01 -0.28883061948E-03  0.50000500000E+01  0.50000000000E+01 0. -1.
         50    1    1    2    0    0 -0.19480826634E-01 -0.10973443877E-01  0.28883061948E-03  0.50000500000E+01  0.50000000000E+01 0.  0.
</event>
<event>
 4    1  0.4993983E-021  0.5000050E+01  0.7818608E-02  0.2136455E+00
        -11   -1    0    0    0    0  0.00000000000E+00  0.00000000000E+00  0.50000499739E+01  0.50000500000E+01  0.51100000000E-03 0.  1.
         11   -1    0    0    0    0 -0.00000000000E+00 -0.00000000000E+00 -0.50000499739E+01  0.50000500000E+01  0.51100000000E-03 0. -1.
         50    1    1    2    0    0 -0.26954804507E-02 -0.10043474033E-01  0.19795593310E-01  0.50000500000E+01  0.50000000000E+01 0.  0.
         50    1    1    2    0    0  0.26954804507E-02  0.10043474033E-01 -0.19795593310E-01  0.50000500000E+01  0.50000000000E+01 0.  0.
</event>
<event>
 4    1  0.4993983E-021  0.5000050E+01  0.7818608E-02  0.2136455E+00
        -11   -1    0    0    0    0  0.00000000000E+00  0.00000000000E+00  0.50000499739E+01  0.50000500000E+01  0.51100000000E-03 0. -1.
         11   -1    0    0    0    0 -0.00000000000E+00 -0.00000000000E+00 -0.50000499739E+01  0.50000500000E+01  0.51100000000E-03 0.  1.
         50    1    1    2    0    0  0.65615105452E-02  0.39107755257E-02  0.21015587409E-01  0.50000500000E+01  0.50000000000E+01 0. -1.
         50    1    1    2    0    0 -0.65615105452E-02 -0.39107755257E-02 -0.21015587409E-01  0.50000500000E+01  0.50000000000E+01 0.  0.
</event>
<event>
 4    1  0.4993983E-021  0.5000050E+01  0.7818608E-02  0.2136455E+00
        -11   -1    0    0    0    0  0.00000000000E+00  0.00000000000E+00  0.50000499739E+01  0.50000500000E+01  0.51100000000E-03 0. -1.
         11   -1    0    0    0    0 -0.00000000000E+00 -0.00000000000E+00 -0.50000499739E+01  0.50000500000E+01  0.51100000000E-03 0.  1.
         50    1    1    2    0    0  0.20537205091E-02 -0.16039870380E-01 -0.15443681240E-01  0.50000500000E+01  0.50000000000E+01 0.  1.
         50    1    1    2    0    0 -0.20537205091E-02  0.16039870380E-01  0.15443681240E-01  0.50000500000E+01  0.50000000000E+01 0. -1.
</event>
<event>
 4    1  0.4993983E-021  0.5000050E+01  0.7818608E-02  0.2136455E+00
        -11   -1    0    0    0    0  0.00000000000E+00  0.00000000000E+00  0.50000499739E+01  0.50000500000E+01  0.51100000000E-03 0. -1.
         11   -1    0    0    0    0 -0.00000000000E+00 -0.00000000000E+00 -0.50000499739E+01  0.50000500000E+01  0.51100000000E-03 0.  1.
         50    1    1    2    0    0 -0.15845622773E-01  0.60142421729E-02  0.14585870903E-01  0.50000500000E+01  0.50000000000E+01 0. -1.
         50    1    1    2    0    0  0.15845622773E-01 -0.60142421729E-02 -0.14585870903E-01  0.50000500000E+01  0.50000000000E+01 0. -1.
</event>
<event>
 4    1  0.4993983E-021  0.5000050E+01  0.7818608E-02  0.2136455E+00
        -11   -1    0    0    0    0  0.00000000000E+00  0.00000000000E+00  0.50000499739E+01  0.50000500000E+01  0.51100000000E-03 0. -1.
         11   -1    0    0    0    0 -0.00000000000E+00 -0.00000000000E+00 -0.50000499739E+01  0.50000500000E+01  0.51100000000E-03 0.  1.
         50    1    1    2    0    0  0.13778625699E-01 -0.15430549302E-01 -0.84882343322E-02  0.50000500000E+01  0.50000000000E+01 0.  0.
         50    1    1    2    0    0 -0.13778625699E-01  0.15430549302E-01  0.84882343322E-02  0.50000500000E+01  0.50000000000E+01 0.  1.
</event>
<event>
 4    1  0.4993983E-021  0.5000050E+01  0.7818608E-02  0.2136455E+00
        -11   -1    0    0    0    0  0.00000000000E+00  0.00000000000E+00  0.50000499739E+01  0.50000500000E+01  0.51100000000E-03 0. -1.
         11   -1    0    0    0    0 -0.00000000000E+00 -0.00000000000E+00 -0.50000499739E+01  0.50000500000E+01  0.51100000000E-03 0.  1.
         50    1    1    2    0    0  0.75425926558E-02  0.10213615431E-01  0.18406353681E-01  0.50000500000E+01  0.50000000000E+01 0. -1.
         50    1    1    2    0    0 -0.75425926558E-02 -0.10213615431E-01 -0.18406353681E-01  0.50000500000E+01  0.50000000000E+01 0.  1.
</event>
<event>
 4    1  0.4993983E-021  0.5000050E+01  0.7818608E-02  0.2136455E+00
        -11   -1    0    0    0    0  0.00000000000E+00  0.00000000000E+00  0.50000499739E+01  0.50000500000E+01  0.51100000000E-03 0. -1.
         11   -1    0    0    0    0 -0.00000000000E+00 -0.00000000000E+00 -0.50000499739E+01  0.50000500000E+01  0.51100000000E-03 0.  1.
         50    1    1    2    0    0  0.13194704715E-01 -0.15259039395E-01  0.96469676171E-02  0.50000500000E+01  0.50000000000E+01 0. -1.
         50    1    1    2    0    0 -0.13194704715E-01  0.15259039395E-01 -0.96469676171E-02  0.50000500000E+01  0.50000000000E+01 0.  1.
</event>
<event>
 4    1  0.4993983E-021  0.5000050E+01  0.7818608E-02  0.2136455E+00
        -11   -1    0    0    0    0  0.00000000000E+00  0.00000000000E+00  0.50000499739E+01  0.50000500000E+01  0.51100000000E-03 0.  1.
         11   -1    0    0    0    0 -0.00000000000E+00 -0.00000000000E+00 -0.50000499739E+01  0.50000500000E+01  0.51100000000E-03 0. -1.
         50    1    1    2    0    0 -0.10542181257E-01 -0.14320957412E-01 -0.13556367254E-01  0.50000500000E+01  0.50000000000E+01 0. -1.
         50    1    1    2    0    0  0.10542181257E-01  0.14320957412E-01  0.13556367254E-01  0.50000500000E+01  0.50000000000E+01 0.  1.
</event>
<event>
 4    1  0.4993983E-021  0.5000050E+01  0.7818608E-02  0.2136455E+00
        -11   -1    0    0    0    0  0.00000000000E+00  0.00000000000E+00  0.50000499739E+01  0.50000500000E+01  0.51100000000E-03 0.  1.
         11   -1    0    0    0    0 -0.00000000000E+00 -0.00000000000E+00 -0.50000499739E+01  0.50000500000E+01  0.51100000000E-03 0. -1.
         50    1    1    2    0    0 -0.55737725145E-02 -0.15094358369E-01 -0.15527263294E-01  0.50000500000E+01  0.50000000000E+01 0. -1.
         50    1    1    2    0    0  0.55737725145E-02  0.15094358369E-01  0.15527263294E-01  0.50000500000E+01  0.50000000000E+01 0.  1.
</event>
<event>
 4    1  0.4993983E-021  0.5000050E+01  0.7818608E-02  0.2136455E+00
        -11   -1    0    0    0    0  0.00000000000E+00  0.00000000000E+00  0.50000499739E+01  0.50000500000E+01  0.51100000000E-03 0.  1.
         11   -1    0    0    0    0 -0.00000000000E+00 -0.00000000000E+00 -0.50000499739E+01  0.50000500000E+01  0.51100000000E-03 0. -1.
         50    1    1    2    0    0  0.94898251431E-02 -0.14577390689E-02  0.20194571438E-01  0.50000500000E+01  0.50000000000E+01 0.  0.
         50    1    1    2    0    0 -0.94898251431E-02  0.14577390689E-02 -0.20194571438E-01  0.50000500000E+01  0.50000000000E+01 0.  0.
</event>
<event>
 4    1  0.4993983E-021  0.5000050E+01  0.7818608E-02  0.2136455E+00
        -11   -1    0    0    0    0  0.00000000000E+00  0.00000000000E+00  0.50000499739E+01  0.50000500000E+01  0.51100000000E-03 0.  1.
         11   -1    0    0    0    0 -0.00000000000E+00 -0.00000000000E+00 -0.50000499739E+01  0.50000500000E+01  0.51100000000E-03 0. -1.
         50    1    1    2    0    0  0.20738184198E-01 -0.50001959486E-02 -0.67028543666E-02  0.50000500000E+01  0.50000000000E+01 0.  1.
         50    1    1    2    0    0 -0.20738184198E-01  0.50001959486E-02  0.67028543666E-02  0.50000500000E+01  0.50000000000E+01 0. -1.
</event>
<event>
 4    1  0.4993983E-021  0.5000050E+01  0.7818608E-02  0.2136455E+00
        -11   -1    0    0    0    0  0.00000000000E+00  0.00000000000E+00  0.50000499739E+01  0.50000500000E+01  0.51100000000E-03 0.  1.
         11   -1    0    0    0    0 -0.00000000000E+00 -0.00000000000E+00 -0.50000499739E+01  0.50000500000E+01  0.51100000000E-03 0. -1.
         50    1    1    2    0    0 -0.17457961003E-01  0.11565237152E-01 -0.78401139808E-02  0.50000500000E+01  0.50000000000E+01 0.  1.
         50    1    1    2    0    0  0.17457961003E-01 -0.11565237152E-01  0.78401139808E-02  0.50000500000E+01  0.50000000000E+01 0.  0.
</event>
<event>
 4    1  0.4993983E-021  0.5000050E+01  0.7818608E-02  0.2136455E+00
        -11   -1    0    0    0    0  0.00000000000E+00  0.00000000000E+00  0.50000499739E+01  0.50000500000E+01  0.51100000000E-03 0. -1.
         11   -1    0    0    0    0 -0.00000000000E+00 -0.00000000000E+00 -0.50000499739E+01  0.50000500000E+01  0.51100000000E-03 0.  1.
         50    1    1    2    0    0 -0.11932262071E-01 -0.34834632086E-02  0.18587337247E-01  0.50000500000E+01  0.50000000000E+01 0.  0.
         50    1    1    2    0    0  0.11932262071E-01  0.34834632086E-02 -0.18587337247E-01  0.50000500000E+01  0.50000000000E+01 0. -1.
</event>
<event>
 4    1  0.4993983E-021  0.5000050E+01  0.7818608E-02  0.2136455E+00
        -11   -1    0    0    0    0  0.00000000000E+00  0.00000000000E+00  0.50000499739E+01  0.50000500000E+01  0.51100000000E-03 0. -1.
         11   -1    0    0    0    0 -0.00000000000E+00 -0.00000000000E+00 -0.50000499739E+01  0.50000500000E+01  0.51100000000E-03 0.  1.
         50    1    1    2    0    0 -0.77720698834E-02 -0.20313476698E-01 -0.51923110632E-02  0.50000500000E+01  0.50000000000E+01 0.  1.
         50    1    1    2    0    0  0.77720698834E-02  0.20313476698E-01  0.51923110632E-02  0.50000500000E+01  0.50000000000E+01 0. -1.
</event>
<event>
 4    1  0.4993983E-021  0.5000050E+01  0.7818608E-02  0.2136455E+00
        -11   -1    0    0    0    0  0.00000000000E+00  0.00000000000E+00  0.50000499739E+01  0.50000500000E+01  0.51100000000E-03 0. -1.
         11   -1    0    0    0    0 -0.00000000000E+00 -0.00000000000E+00 -0.50000499739E+01  0.50000500000E+01  0.51100000000E-03 0.  1.
         50    1    1    2    0    0 -0.89163984043E-02  0.14155164029E-01 -0.14836834932E-01  0.50000500000E+01  0.50000000000E+01 0.  0.
         50    1    1    2    0    0  0.89163984043E-02 -0.14155164029E-01  0.14836834932E-01  0.50000500000E+01  0.50000000000E+01 0.  0.
</event>
<event>
 4    1  0.4993983E-021  0.5000050E+01  0.7818608E-02  0.2136455E+00
        -11   -1    0    0    0    0  0.00000000000E+00  0.00000000000E+00  0.50000499739E+01  0.50000500000E+01  0.51100000000E-03 0. -1.
         11   -1    0    0    0    0 -0.00000000000E+00 -0.00000000000E+00 -0.50000499739E+01  0.50000500000E+01  0.51100000000E-03 0.  1.
         50    1    1    2    0    0  0.12747861292E-01 -0.39350124043E-02  0.17944642929E-01  0.50000500000E+01  0.50000000000E+01 0. -1.
         50    1    1    2    0    0 -0.12747861292E-01  0.39350124043E-02 -0.17944642929E-01  0.50000500000E+01  0.50000000000E+01 0.  1.
</event>
<event>
 4    1  0.4993983E-021  0.5000050E+01  0.7818608E-02  0.2136455E+00
        -11   -1    0    0    0    0  0.00000000000E+00  0.00000000000E+00  0.50000499739E+01  0.50000500000E+01  0.51100000000E-03 0.  1.
         11   -1    0    0    0    0 -0.00000000000E+00 -0.00000000000E+00 -0.50000499739E+01  0.50000500000E+01  0.51100000000E-03 0. -1.
         50    1    1    2    0    0 -0.16002413823E-01  0.85106324897E-02 -0.13095586526E-01  0.50000500000E+01  0.50000000000E+01 0.  0.
         50    1    1    2    0    0  0.16002413823E-01 -0.85106324897E-02  0.13095586526E-01  0.50000500000E+01  0.50000000000E+01 0.  0.
</event>
<event>
 4    1  0.4993983E-021  0.5000050E+01  0.7818608E-02  0.2136455E+00
        -11   -1    0    0    0    0  0.00000000000E+00  0.00000000000E+00  0.50000499739E+01  0.50000500000E+01  0.51100000000E-03 0. -1.
         11   -1    0    0    0    0 -0.00000000000E+00 -0.00000000000E+00 -0.50000499739E+01  0.50000500000E+01  0.51100000000E-03 0.  1.
         50    1    1    2    0    0  0.13315898978E-01 -0.41298883560E-02 -0.17482372739E-01  0.50000500000E+01  0.50000000000E+01 0.  0.
         50    1    1    2    0    0 -0.13315898978E-01  0.41298883560E-02  0.17482372739E-01  0.50000500000E+01  0.50000000000E+01 0. -1.
</event>
<event>
 4    1  0.4993983E-021  0.5000050E+01  0.7818608E-02  0.2136455E+00
        -11   -1    0    0    0    0  0.00000000000E+00  0.00000000000E+00  0.50000499739E+01  0.50000500000E+01  0.51100000000E-03 0. -1.
         11   -1    0    0    0    0 -0.00000000000E+00 -0.00000000000E+00 -0.50000499739E+01  0.50000500000E+01  0.51100000000E-03 0.  1.
         50    1    1    2    0    0  0.13971705979E-01  0.10175366540E-01  0.14186467067E-01  0.50000500000E+01  0.50000000000E+01 0. -1.
         50    1    1    2    0    0 -0.13971705979E-01 -0.10175366540E-01 -0.14186467067E-01  0.50000500000E+01  0.50000000000E+01 0.  1.
</event>
<event>
 4    1  0.4993983E-021  0.5000050E+01  0.7818608E-02  0.2136455E+00
        -11   -1    0    0    0    0  0.00000000000E+00  0.00000000000E+00  0.50000499739E+01  0.50000500000E+01  0.51100000000E-03 0.  1.
         11   -1    0    0    0    0 -0.00000000000E+00 -0.00000000000E+00 -0.50000499739E+01  0.50000500000E+01  0.51100000000E-03 0. -1.
         50    1    1    2    0    0 -0.49033038468E-02 -0.17487339084E-01  0.13044273961E-01  0.50000500000E+01  0.50000000000E+01 0. -1.
         50    1    1    2    0    0  0.49033038468E-02  0.17487339084E-01 -0.13044273961E-01  0.50000500000E+01  0.50000000000E+01 0. -1.
</event>
<event>
 4    1  0.4993983E-021  0.5000050E+01  0.7818608E-02  0.2136455E+00
        -11   -1    0    0    0    0  0.00000000000E+00  0.00000000000E+00  0.50000499739E+01  0.50000500000E+01  0.51100000000E-03 0.  1.
         11   -1    0    0    0    0 -0.00000000000E+00 -0.00000000000E+00 -0.50000499739E+01  0.50000500000E+01  0.51100000000E-03 0. -1.
         50    1    1    2    0    0  0.16846568308E-01  0.56208109040E-02 -0.13586836314E-01  0.50000500000E+01  0.50000000000E+01 0.  1.
         50    1    1    2    0    0 -0.16846568308E-01 -0.56208109040E-02  0.13586836314E-01  0.50000500000E+01  0.50000000000E+01 0.  0.
</event>
<event>
 4    1  0.4993983E-021  0.5000050E+01  0.7818608E-02  0.2136455E+00
        -11   -1    0    0    0    0  0.00000000000E+00  0.00000000000E+00  0.50000499739E+01  0.50000500000E+01  0.51100000000E-03 0. -1.
         11   -1    0    0    0    0 -0.00000000000E+00 -0.00000000000E+00 -0.50000499739E+01  0.50000500000E+01  0.51100000000E-03 0.  1.
         50    1    1    2    0    0 -0.13377333409E-01 -0.82887127447E-02 -0.15885423882E-01  0.50000500000E+01  0.50000000000E+01 0.  1.
         50    1    1    2    0    0  0.13377333409E-01  0.82887127447E-02  0.15885423882E-01  0.50000500000E+01  0.50000000000E+01 0. -1.
</event>
<event>
 4    1  0.4993983E-021  0.5000050E+01  0.7818608E-02  0.2136455E+00
        -11   -1    0    0    0    0  0.00000000000E+00  0.00000000000E+00  0.50000499739E+01  0.50000500000E+01  0.51100000000E-03 0. -1.
         11   -1    0    0    0    0 -0.00000000000E+00 -0.00000000000E+00 -0.50000499739E+01  0.50000500000E+01  0.51100000000E-03 0.  1.
         50    1    1    2    0    0 -0.20146401765E-03  0.12431006305E-01 -0.18585800884E-01  0.50000500000E+01  0.50000000000E+01 0.  0.
         50    1    1    2    0    0  0.20146401765E-03 -0.12431006305E-01  0.18585800884E-01  0.50000500000E+01  0.50000000000E+01 0.  0.
</event>
<event>
 4    1  0.4993983E-021  0.5000050E+01  0.7818608E-02  0.2136455E+00
        -11   -1    0    0    0    0  0.00000000000E+00  0.00000000000E+00  0.50000499739E+01  0.50000500000E+01  0.51100000000E-03 0.  1.
         11   -1    0    0    0    0 -0.00000000000E+00 -0.00000000000E+00 -0.50000499739E+01  0.50000500000E+01  0.51100000000E-03 0. -1.
         50    1    1    2    0    0 -0.87259661362E-02 -0.17439544802E-01 -0.10941768234E-01  0.50000500000E+01  0.50000000000E+01 0. -1.
         50    1    1    2    0    0  0.87259661362E-02  0.17439544802E-01  0.10941768234E-01  0.50000500000E+01  0.50000000000E+01 0.  1.
</event>
<event>
 4    1  0.4993983E-021  0.5000050E+01  0.7818608E-02  0.2136455E+00
        -11   -1    0    0    0    0  0.00000000000E+00  0.00000000000E+00  0.50000499739E+01  0.50000500000E+01  0.51100000000E-03 0. -1.
         11   -1    0    0    0    0 -0.00000000000E+00 -0.00000000000E+00 -0.50000499739E+01  0.50000500000E+01  0.51100000000E-03 0.  1.
         50    1    1    2    0    0  0.12992775904E-01 -0.60643709318E-02  0.17158487098E-01  0.50000500000E+01  0.50000000000E+01 0.  0.
         50    1    1    2    0    0 -0.12992775904E-01  0.60643709318E-02 -0.17158487098E-01  0.50000500000E+01  0.50000000000E+01 0.  0.
</event>
<event>
 4    1  0.4993983E-021  0.5000050E+01  0.7818608E-02  0.2136455E+00
        -11   -1    0    0    0    0  0.00000000000E+00  0.00000000000E+00  0.50000499739E+01  0.50000500000E+01  0.51100000000E-03 0. -1.
         11   -1    0    0    0    0 -0.00000000000E+00 -0.00000000000E+00 -0.50000499739E+01  0.50000500000E+01  0.51100000000E-03 0.  1.
         50    1    1    2    0    0 -0.11676464440E-01 -0.83654495215E-02  0.17137150652E-01  0.50000500000E+01  0.50000000000E+01 0.  0.
         50    1    1    2    0    0  0.11676464440E-01  0.83654495215E-02 -0.17137150652E-01  0.50000500000E+01  0.50000000000E+01 0.  0.
</event>
<event>
 4    1  0.4993983E-021  0.5000050E+01  0.7818608E-02  0.2136455E+00
        -11   -1    0    0    0    0  0.00000000000E+00  0.00000000000E+00  0.50000499739E+01  0.50000500000E+01  0.51100000000E-03 0.  1.
         11   -1    0    0    0    0 -0.00000000000E+00 -0.00000000000E+00 -0.50000499739E+01  0.50000500000E+01  0.51100000000E-03 0. -1.
         50    1    1    2    0    0 -0.14465248701E-01  0.16742283651E-01  0.32334220512E-02  0.50000500000E+01  0.50000000000E+01 0.  0.
         50    1    1    2    0    0  0.14465248701E-01 -0.16742283651E-01 -0.32334220512E-02  0.50000500000E+01  0.50000000000E+01 0. -1.
</event>
<event>
 4    1  0.4993983E-021  0.5000050E+01  0.7818608E-02  0.2136455E+00
        -11   -1    0    0    0    0  0.00000000000E+00  0.00000000000E+00  0.50000499739E+01  0.50000500000E+01  0.51100000000E-03 0.  1.
         11   -1    0    0    0    0 -0.00000000000E+00 -0.00000000000E+00 -0.50000499739E+01  0.50000500000E+01  0.51100000000E-03 0. -1.
         50    1    1    2    0    0 -0.13400793865E-02 -0.87745502986E-02 -0.20523497614E-01  0.50000500000E+01  0.50000000000E+01 0. -1.
         50    1    1    2    0    0  0.13400793865E-02  0.87745502986E-02  0.20523497614E-01  0.50000500000E+01  0.50000000000E+01 0.  1.
</event>
<event>
 4    1  0.4993983E-021  0.5000050E+01  0.7818608E-02  0.2136455E+00
        -11   -1    0    0    0    0  0.00000000000E+00  0.00000000000E+00  0.50000499739E+01  0.50000500000E+01  0.51100000000E-03 0. -1.
         11   -1    0    0    0    0 -0.00000000000E+00 -0.00000000000E+00 -0.50000499739E+01  0.50000500000E+01  0.51100000000E-03 0.  1.
         50    1    1    2    0    0  0.21669624132E-01 -0.31206455427E-02 -0.45487868005E-02  0.50000500000E+01  0.50000000000E+01 0.  0.
         50    1    1    2    0    0 -0.21669624132E-01  0.31206455427E-02  0.45487868005E-02  0.50000500000E+01  0.50000000000E+01 0.  1.
</event>
<event>
 4    1  0.4993983E-021  0.5000050E+01  0.7818608E-02  0.2136455E+00
        -11   -1    0    0    0    0  0.00000000000E+00  0.00000000000E+00  0.50000499739E+01  0.50000500000E+01  0.51100000000E-03 0.  1.
         11   -1    0    0    0    0 -0.00000000000E+00 -0.00000000000E+00 -0.50000499739E+01  0.50000500000E+01  0.51100000000E-03 0. -1.
         50    1    1    2    0    0 -0.12844895251E-01 -0.64567463699E-02 -0.17126634004E-01  0.50000500000E+01  0.50000000000E+01 0. -1.
         50    1    1    2    0    0  0.12844895251E-01  0.64567463699E-02  0.17126634004E-01  0.50000500000E+01  0.50000000000E+01 0.  1.
</event>
<event>
 4    1  0.4993983E-021  0.5000050E+01  0.7818608E-02  0.2136455E+00
        -11   -1    0    0    0    0  0.00000000000E+00  0.00000000000E+00  0.50000499739E+01  0.50000500000E+01  0.51100000000E-03 0. -1.
         11   -1    0    0    0    0 -0.00000000000E+00 -0.00000000000E+00 -0.50000499739E+01  0.50000500000E+01  0.51100000000E-03 0.  1.
         50    1    1    2    0    0  0.92141543906E-02 -0.14848199139E-01  0.13951087456E-01  0.50000500000E+01  0.50000000000E+01 0. -1.
         50    1    1    2    0    0 -0.92141543906E-02  0.14848199139E-01 -0.13951087456E-01  0.50000500000E+01  0.50000000000E+01 0.  1.
</event>
<event>
 4    1  0.4993983E-021  0.5000050E+01  0.7818608E-02  0.2136455E+00
        -11   -1    0    0    0    0  0.00000000000E+00  0.00000000000E+00  0.50000499739E+01  0.50000500000E+01  0.51100000000E-03 0.  1.
         11   -1    0    0    0    0 -0.00000000000E+00 -0.00000000000E+00 -0.50000499739E+01  0.50000500000E+01  0.51100000000E-03 0. -1.
         50    1    1    2    0    0  0.20775924880E-01  0.43438056599E-02  0.70352539243E-02  0.50000500000E+01  0.50000000000E+01 0.  0.
         50    1    1    2    0    0 -0.20775924880E-01 -0.43438056599E-02 -0.70352539243E-02  0.50000500000E+01  0.50000000000E+01 0.  0.
</event>
<event>
 4    1  0.4993983E-021  0.5000050E+01  0.7818608E-02  0.2136455E+00
        -11   -1    0    0    0    0  0.00000000000E+00  0.00000000000E+00  0.50000499739E+01  0.50000500000E+01  0.51100000000E-03 0. -1.
         11   -1    0    0    0    0 -0.00000000000E+00 -0.00000000000E+00 -0.50000499739E+01  0.50000500000E+01  0.51100000000E-03 0.  1.
         50    1    1    2    0    0  0.42348120891E-02  0.19370503296E-01  0.10336946774E-01  0.50000500000E+01  0.50000000000E+01 0.  1.
         50    1    1    2    0    0 -0.42348120891E-02 -0.19370503296E-01 -0.10336946774E-01  0.50000500000E+01  0.50000000000E+01 0.  0.
</event>
<event>
 4    1  0.4993983E-021  0.5000050E+01  0.7818608E-02  0.2136455E+00
        -11   -1    0    0    0    0  0.00000000000E+00  0.00000000000E+00  0.50000499739E+01  0.50000500000E+01  0.51100000000E-03 0.  1.
         11   -1    0    0    0    0 -0.00000000000E+00 -0.00000000000E+00 -0.50000499739E+01  0.50000500000E+01  0.51100000000E-03 0. -1.
         50    1    1    2    0    0  0.94775382133E-02 -0.19700868642E-01 -0.46962265889E-02  0.50000500000E+01  0.50000000000E+01 0.  0.
         50    1    1    2    0    0 -0.94775382133E-02  0.19700868642E-01  0.46962265889E-02  0.50000500000E+01  0.50000000000E+01 0. -1.
</event>
<event>
 4    1  0.4993983E-021  0.5000050E+01  0.7818608E-02  0.2136455E+00
        -11   -1    0    0    0    0  0.00000000000E+00  0.00000000000E+00  0.50000499739E+01  0.50000500000E+01  0.51100000000E-03 0.  1.
         11   -1    0    0    0    0 -0.00000000000E+00 -0.00000000000E+00 -0.50000499739E+01  0.50000500000E+01  0.51100000000E-03 0. -1.
         50    1    1    2    0    0 -0.96339155059E-02 -0.20146487569E-01 -0.11442074337E-02  0.50000500000E+01  0.50000000000E+01 0. -1.
         50    1    1    2    0    0  0.96339155059E-02  0.20146487569E-01  0.11442074337E-02  0.50000500000E+01  0.50000000000E+01 0.  1.
</event>
<event>
 4    1  0.4993983E-021  0.5000050E+01  0.7818608E-02  0.2136455E+00
        -11   -1    0    0    0    0  0.00000000000E+00  0.00000000000E+00  0.50000499739E+01  0.50000500000E+01  0.51100000000E-03 0.  1.
         11   -1    0    0    0    0 -0.00000000000E+00 -0.00000000000E+00 -0.50000499739E+01  0.50000500000E+01  0.51100000000E-03 0. -1.
         50    1    1    2    0    0  0.16916811083E-01  0.18573605497E-02  0.14504282628E-01  0.50000500000E+01  0.50000000000E+01 0.  1.
         50    1    1    2    0    0 -0.16916811083E-01 -0.18573605497E-02 -0.14504282628E-01  0.50000500000E+01  0.50000000000E+01 0. -1.
</event>
<event>
 4    1  0.4993983E-021  0.5000050E+01  0.7818608E-02  0.2136455E+00
        -11   -1    0    0    0    0  0.00000000000E+00  0.00000000000E+00  0.50000499739E+01  0.50000500000E+01  0.51100000000E-03 0.  1.
         11   -1    0    0    0    0 -0.00000000000E+00 -0.00000000000E+00 -0.50000499739E+01  0.50000500000E+01  0.51100000000E-03 0. -1.
         50    1    1    2    0    0 -0.97934147638E-02  0.95457818896E-02 -0.17690946141E-01  0.50000500000E+01  0.50000000000E+01 0.  0.
         50    1    1    2    0    0  0.97934147638E-02 -0.95457818896E-02  0.17690946141E-01  0.50000500000E+01  0.50000000000E+01 0.  0.
</event>
<event>
 4    1  0.4993983E-021  0.5000050E+01  0.7818608E-02  0.2136455E+00
        -11   -1    0    0    0    0  0.00000000000E+00  0.00000000000E+00  0.50000499739E+01  0.50000500000E+01  0.51100000000E-03 0. -1.
         11   -1    0    0    0    0 -0.00000000000E+00 -0.00000000000E+00 -0.50000499739E+01  0.50000500000E+01  0.51100000000E-03 0.  1.
         50    1    1    2    0    0  0.15422567942E-01 -0.12207108938E-01  0.10636418075E-01  0.50000500000E+01  0.50000000000E+01 0. -1.
         50    1    1    2    0    0 -0.15422567942E-01  0.12207108938E-01 -0.10636418075E-01  0.50000500000E+01  0.50000000000E+01 0.  1.
</event>
<event>
 4    1  0.4993983E-021  0.5000050E+01  0.7818608E-02  0.2136455E+00
        -11   -1    0    0    0    0  0.00000000000E+00  0.00000000000E+00  0.50000499739E+01  0.50000500000E+01  0.51100000000E-03 0. -1.
         11   -1    0    0    0    0 -0.00000000000E+00 -0.00000000000E+00 -0.50000499739E+01  0.50000500000E+01  0.51100000000E-03 0.  1.
         50    1    1    2    0    0 -0.23176089813E-02 -0.51062730306E-02 -0.21646181288E-01  0.50000500000E+01  0.50000000000E+01 0.  0.
         50    1    1    2    0    0  0.23176089813E-02  0.51062730306E-02  0.21646181288E-01  0.50000500000E+01  0.50000000000E+01 0. -1.
</event>
<event>
 4    1  0.4993983E-021  0.5000050E+01  0.7818608E-02  0.2136455E+00
        -11   -1    0    0    0    0  0.00000000000E+00  0.00000000000E+00  0.50000499739E+01  0.50000500000E+01  0.51100000000E-03 0. -1.
         11   -1    0    0    0    0 -0.00000000000E+00 -0.00000000000E+00 -0.50000499739E+01  0.50000500000E+01  0.51100000000E-03 0.  1.
         50    1    1    2    0    0 -0.11939110685E-01  0.15112245523E-01  0.11361345488E-01  0.50000500000E+01  0.50000000000E+01 0. -1.
         50    1    1    2    0    0  0.11939110685E-01 -0.15112245523E-01 -0.11361345488E-01  0.50000500000E+01  0.50000000000E+01 0.  1.
</event>
<event>
 4    1  0.4993983E-021  0.5000050E+01  0.7818608E-02  0.2136455E+00
        -11   -1    0    0    0    0  0.00000000000E+00  0.00000000000E+00  0.50000499739E+01  0.50000500000E+01  0.51100000000E-03 0. -1.
         11   -1    0    0    0    0 -0.00000000000E+00 -0.00000000000E+00 -0.50000499739E+01  0.50000500000E+01  0.51100000000E-03 0.  1.
         50    1    1    2    0    0  0.17657091549E-01  0.12262783769E-01 -0.61525403095E-02  0.50000500000E+01  0.50000000000E+01 0.  1.
         50    1    1    2    0    0 -0.17657091549E-01 -0.12262783769E-01  0.61525403095E-02  0.50000500000E+01  0.50000000000E+01 0. -1.
</event>
<event>
 4    1  0.4993983E-021  0.5000050E+01  0.7818608E-02  0.2136455E+00
        -11   -1    0    0    0    0  0.00000000000E+00  0.00000000000E+00  0.50000499739E+01  0.50000500000E+01  0.51100000000E-03 0.  1.
         11   -1    0    0    0    0 -0.00000000000E+00 -0.00000000000E+00 -0.50000499739E+01  0.50000500000E+01  0.51100000000E-03 0. -1.
         50    1    1    2    0    0 -0.12970161942E-01 -0.97493829399E-02  0.15385932909E-01  0.50000500000E+01  0.50000000000E+01 0.  1.
         50    1    1    2    0    0  0.12970161942E-01  0.97493829399E-02 -0.15385932909E-01  0.50000500000E+01  0.50000000000E+01 0.  0.
</event>
<event>
 4    1  0.4993983E-021  0.5000050E+01  0.7818608E-02  0.2136455E+00
        -11   -1    0    0    0    0  0.00000000000E+00  0.00000000000E+00  0.50000499739E+01  0.50000500000E+01  0.51100000000E-03 0.  1.
         11   -1    0    0    0    0 -0.00000000000E+00 -0.00000000000E+00 -0.50000499739E+01  0.50000500000E+01  0.51100000000E-03 0. -1.
         50    1    1    2    0    0 -0.91716473171E-04  0.16489729865E-01 -0.15102413617E-01  0.50000500000E+01  0.50000000000E+01 0.  0.
         50    1    1    2    0    0  0.91716473171E-04 -0.16489729865E-01  0.15102413617E-01  0.50000500000E+01  0.50000000000E+01 0.  0.
</event>
<event>
 4    1  0.4993983E-021  0.5000050E+01  0.7818608E-02  0.2136455E+00
        -11   -1    0    0    0    0  0.00000000000E+00  0.00000000000E+00  0.50000499739E+01  0.50000500000E+01  0.51100000000E-03 0. -1.
         11   -1    0    0    0    0 -0.00000000000E+00 -0.00000000000E+00 -0.50000499739E+01  0.50000500000E+01  0.51100000000E-03 0.  1.
         50    1    1    2    0    0 -0.91566175903E-02 -0.20396094075E-01 -0.39774464113E-03  0.50000500000E+01  0.50000000000E+01 0.  0.
         50    1    1    2    0    0  0.91566175903E-02  0.20396094075E-01  0.39774464113E-03  0.50000500000E+01  0.50000000000E+01 0.  1.
</event>
<event>
 4    1  0.4993983E-021  0.5000050E+01  0.7818608E-02  0.2136455E+00
        -11   -1    0    0    0    0  0.00000000000E+00  0.00000000000E+00  0.50000499739E+01  0.50000500000E+01  0.51100000000E-03 0.  1.
         11   -1    0    0    0    0 -0.00000000000E+00 -0.00000000000E+00 -0.50000499739E+01  0.50000500000E+01  0.51100000000E-03 0. -1.
         50    1    1    2    0    0  0.17597678274E-01  0.84909868111E-02  0.10873240654E-01  0.50000500000E+01  0.50000000000E+01 0. -1.
         50    1    1    2    0    0 -0.17597678274E-01 -0.84909868111E-02 -0.10873240654E-01  0.50000500000E+01  0.50000000000E+01 0.  1.
</event>
<event>
 4    1  0.4993983E-021  0.5000050E+01  0.7818608E-02  0.2136455E+00
        -11   -1    0    0    0    0  0.00000000000E+00  0.00000000000E+00  0.50000499739E+01  0.50000500000E+01  0.51100000000E-03 0. -1.
         11   -1    0    0    0    0 -0.00000000000E+00 -0.00000000000E+00 -0.50000499739E+01  0.50000500000E+01  0.51100000000E-03 0.  1.
         50    1    1    2    0    0  0.10818658561E-01  0.99562340687E-02  0.16847330059E-01  0.50000500000E+01  0.50000000000E+01 0.  0.
         50    1    1    2    0    0 -0.10818658561E-01 -0.99562340687E-02 -0.16847330059E-01  0.50000500000E+01  0.50000000000E+01 0.  0.
</event>
<event>
 4    1  0.4993983E-021  0.5000050E+01  0.7818608E-02  0.2136455E+00
        -11   -1    0    0    0    0  0.00000000000E+00  0.00000000000E+00  0.50000499739E+01  0.50000500000E+01  0.51100000000E-03 0.  1.
         11   -1    0    0    0    0 -0.00000000000E+00 -0.00000000000E+00 -0.50000499739E+01  0.50000500000E+01  0.51100000000E-03 0. -1.
         50    1    1    2    0    0  0.20960577491E-01 -0.76565601321E-02  0.14261059460E-02  0.50000500000E+01  0.50000000000E+01 0.  1.
         50    1    1    2    0    0 -0.20960577491E-01  0.76565601321E-02 -0.14261059460E-02  0.50000500000E+01  0.50000000000E+01 0. -1.
</event>
<event>
 4    1  0.4993983E-021  0.5000050E+01  0.7818608E-02  0.2136455E+00
        -11   -1    0    0    0    0  0.00000000000E+00  0.00000000000E+00  0.50000499739E+01  0.50000500000E+01  0.51100000000E-03 0. -1.
         11   -1    0    0    0    0 -0.00000000000E+00 -0.00000000000E+00 -0.50000499739E+01  0.50000500000E+01  0.51100000000E-03 0.  1.
         50    1    1    2    0    0 -0.72647738015E-02 -0.20234118612E-01  0.61486588471E-02  0.50000500000E+01  0.50000000000E+01 0.  0.
         50    1    1    2    0    0  0.72647738015E-02  0.20234118612E-01 -0.61486588471E-02  0.50000500000E+01  0.50000000000E+01 0.  0.
</event>
<event>
 4    1  0.4993983E-021  0.5000050E+01  0.7818608E-02  0.2136455E+00
        -11   -1    0    0    0    0  0.00000000000E+00  0.00000000000E+00  0.50000499739E+01  0.50000500000E+01  0.51100000000E-03 0. -1.
         11   -1    0    0    0    0 -0.00000000000E+00 -0.00000000000E+00 -0.50000499739E+01  0.50000500000E+01  0.51100000000E-03 0.  1.
         50    1    1    2    0    0  0.14274193101E-01 -0.96925997963E-02 -0.14223340694E-01  0.50000500000E+01  0.50000000000E+01 0.  0.
         50    1    1    2    0    0 -0.14274193101E-01  0.96925997963E-02  0.14223340694E-01  0.50000500000E+01  0.50000000000E+01 0.  0.
</event>
<event>
 4    1  0.4993983E-021  0.5000050E+01  0.7818608E-02  0.2136455E+00
        -11   -1    0    0    0    0  0.00000000000E+00  0.00000000000E+00  0.50000499739E+01  0.50000500000E+01  0.51100000000E-03 0.  1.
         11   -1    0    0    0    0 -0.00000000000E+00 -0.00000000000E+00 -0.50000499739E+01  0.50000500000E+01  0.51100000000E-03 0. -1.
         50    1    1    2    0    0  0.56500275688E-02  0.16838994214E-02  0.21569519494E-01  0.50000500000E+01  0.50000000000E+01 0.  0.
         50    1    1    2    0    0 -0.56500275688E-02 -0.16838994214E-02 -0.21569519494E-01  0.50000500000E+01  0.50000000000E+01 0. -1.
</event>
<event>
 4    1  0.4993983E-021  0.5000050E+01  0.7818608E-02  0.2136455E+00
        -11   -1    0    0    0    0  0.00000000000E+00  0.00000000000E+00  0.50000499739E+01  0.50000500000E+01  0.51100000000E-03 0.  1.
         11   -1    0    0    0    0 -0.00000000000E+00 -0.00000000000E+00 -0.50000499739E+01  0.50000500000E+01  0.51100000000E-03 0. -1.
         50    1    1    2    0    0  0.62057828968E-02  0.26776123100E-02 -0.21314810601E-01  0.50000500000E+01  0.50000000000E+01 0. -1.
         50    1    1    2    0    0 -0.62057828968E-02 -0.26776123100E-02  0.21314810601E-01  0.50000500000E+01  0.50000000000E+01 0.  0.
</event>
<event>
 4    1  0.4993983E-021  0.5000050E+01  0.7818608E-02  0.2136455E+00
        -11   -1    0    0    0    0  0.00000000000E+00  0.00000000000E+00  0.50000499739E+01  0.50000500000E+01  0.51100000000E-03 0. -1.
         11   -1    0    0    0    0 -0.00000000000E+00 -0.00000000000E+00 -0.50000499739E+01  0.50000500000E+01  0.51100000000E-03 0.  1.
         50    1    1    2    0    0  0.17576985601E-02  0.12121879369E-01  0.18707566286E-01  0.50000500000E+01  0.50000000000E+01 0. -1.
         50    1    1    2    0    0 -0.17576985601E-02 -0.12121879369E-01 -0.18707566286E-01  0.50000500000E+01  0.50000000000E+01 0. -1.
</event>
<event>
 4    1  0.4993983E-021  0.5000050E+01  0.7818608E-02  0.2136455E+00
        -11   -1    0    0    0    0  0.00000000000E+00  0.00000000000E+00  0.50000499739E+01  0.50000500000E+01  0.51100000000E-03 0. -1.
         11   -1    0    0    0    0 -0.00000000000E+00 -0.00000000000E+00 -0.50000499739E+01  0.50000500000E+01  0.51100000000E-03 0.  1.
         50    1    1    2    0    0 -0.93005050034E-02 -0.20221038754E-01  0.21477193463E-02  0.50000500000E+01  0.50000000000E+01 0. -1.
         50    1    1    2    0    0  0.93005050034E-02  0.20221038754E-01 -0.21477193463E-02  0.50000500000E+01  0.50000000000E+01 0.  0.
</event>
<event>
 4    1  0.4993983E-021  0.5000050E+01  0.7818608E-02  0.2136455E+00
        -11   -1    0    0    0    0  0.00000000000E+00  0.00000000000E+00  0.50000499739E+01  0.50000500000E+01  0.51100000000E-03 0. -1.
         11   -1    0    0    0    0 -0.00000000000E+00 -0.00000000000E+00 -0.50000499739E+01  0.50000500000E+01  0.51100000000E-03 0.  1.
         50    1    1    2    0    0  0.15055722261E-01 -0.14385708117E-01 -0.81473387780E-02  0.50000500000E+01  0.50000000000E+01 0.  0.
         50    1    1    2    0    0 -0.15055722261E-01  0.14385708117E-01  0.81473387780E-02  0.50000500000E+01  0.50000000000E+01 0.  1.
</event>
<event>
 4    1  0.4993983E-021  0.5000050E+01  0.7818608E-02  0.2136455E+00
        -11   -1    0    0    0    0  0.00000000000E+00  0.00000000000E+00  0.50000499739E+01  0.50000500000E+01  0.51100000000E-03 0.  1.
         11   -1    0    0    0    0 -0.00000000000E+00 -0.00000000000E+00 -0.50000499739E+01  0.50000500000E+01  0.51100000000E-03 0. -1.
         50    1    1    2    0    0  0.91150075079E-02 -0.14993483133E-01 -0.13860541176E-01  0.50000500000E+01  0.50000000000E+01 0. -1.
         50    1    1    2    0    0 -0.91150075079E-02  0.14993483133E-01  0.13860541176E-01  0.50000500000E+01  0.50000000000E+01 0.  1.
</event>
<event>
 4    1  0.4993983E-021  0.5000050E+01  0.7818608E-02  0.2136455E+00
        -11   -1    0    0    0    0  0.00000000000E+00  0.00000000000E+00  0.50000499739E+01  0.50000500000E+01  0.51100000000E-03 0. -1.
         11   -1    0    0    0    0 -0.00000000000E+00 -0.00000000000E+00 -0.50000499739E+01  0.50000500000E+01  0.51100000000E-03 0.  1.
         50    1    1    2    0    0  0.13413739512E-01 -0.17673224593E-01  0.27805080103E-02  0.50000500000E+01  0.50000000000E+01 0.  0.
         50    1    1    2    0    0 -0.13413739512E-01  0.17673224593E-01 -0.27805080103E-02  0.50000500000E+01  0.50000000000E+01 0.  1.
</event>
<event>
 4    1  0.4993983E-021  0.5000050E+01  0.7818608E-02  0.2136455E+00
        -11   -1    0    0    0    0  0.00000000000E+00  0.00000000000E+00  0.50000499739E+01  0.50000500000E+01  0.51100000000E-03 0. -1.
         11   -1    0    0    0    0 -0.00000000000E+00 -0.00000000000E+00 -0.50000499739E+01  0.50000500000E+01  0.51100000000E-03 0.  1.
         50    1    1    2    0    0 -0.19427845503E-01  0.97678252551E-02  0.52106534028E-02  0.50000500000E+01  0.50000000000E+01 0.  1.
         50    1    1    2    0    0  0.19427845503E-01 -0.97678252551E-02 -0.52106534028E-02  0.50000500000E+01  0.50000000000E+01 0.  0.
</event>
<event>
 4    1  0.4993983E-021  0.5000050E+01  0.7818608E-02  0.2136455E+00
        -11   -1    0    0    0    0  0.00000000000E+00  0.00000000000E+00  0.50000499739E+01  0.50000500000E+01  0.51100000000E-03 0. -1.
         11   -1    0    0    0    0 -0.00000000000E+00 -0.00000000000E+00 -0.50000499739E+01  0.50000500000E+01  0.51100000000E-03 0.  1.
         50    1    1    2    0    0 -0.19440462416E-01 -0.28094657036E-03  0.11044998419E-01  0.50000500000E+01  0.50000000000E+01 0.  0.
         50    1    1    2    0    0  0.19440462416E-01  0.28094657036E-03 -0.11044998419E-01  0.50000500000E+01  0.50000000000E+01 0.  0.
</event>
<event>
 4    1  0.4993983E-021  0.5000050E+01  0.7818608E-02  0.2136455E+00
        -11   -1    0    0    0    0  0.00000000000E+00  0.00000000000E+00  0.50000499739E+01  0.50000500000E+01  0.51100000000E-03 0. -1.
         11   -1    0    0    0    0 -0.00000000000E+00 -0.00000000000E+00 -0.50000499739E+01  0.50000500000E+01  0.51100000000E-03 0.  1.
         50    1    1    2    0    0  0.15437621109E-01 -0.15817460974E-01  0.33897319672E-02  0.50000500000E+01  0.50000000000E+01 0. -1.
         50    1    1    2    0    0 -0.15437621109E-01  0.15817460974E-01 -0.33897319672E-02  0.50000500000E+01  0.50000000000E+01 0.  0.
</event>
<event>
 4    1  0.4993983E-021  0.5000050E+01  0.7818608E-02  0.2136455E+00
        -11   -1    0    0    0    0  0.00000000000E+00  0.00000000000E+00  0.50000499739E+01  0.50000500000E+01  0.51100000000E-03 0.  1.
         11   -1    0    0    0    0 -0.00000000000E+00 -0.00000000000E+00 -0.50000499739E+01  0.50000500000E+01  0.51100000000E-03 0. -1.
         50    1    1    2    0    0 -0.19404967371E-01  0.98971610386E-02 -0.50493509201E-02  0.50000500000E+01  0.50000000000E+01 0.  0.
         50    1    1    2    0    0  0.19404967371E-01 -0.98971610386E-02  0.50493509201E-02  0.50000500000E+01  0.50000000000E+01 0. -1.
</event>
<event>
 4    1  0.4993983E-021  0.5000050E+01  0.7818608E-02  0.2136455E+00
        -11   -1    0    0    0    0  0.00000000000E+00  0.00000000000E+00  0.50000499739E+01  0.50000500000E+01  0.51100000000E-03 0. -1.
         11   -1    0    0    0    0 -0.00000000000E+00 -0.00000000000E+00 -0.50000499739E+01  0.50000500000E+01  0.51100000000E-03 0.  1.
         50    1    1    2    0    0 -0.18455706721E-01  0.98514063539E-03 -0.12586456505E-01  0.50000500000E+01  0.50000000000E+01 0.  1.
         50    1    1    2    0    0  0.18455706721E-01 -0.98514063539E-03  0.12586456505E-01  0.50000500000E+01  0.50000000000E+01 0. -1.
</event>
<event>
 4    1  0.4993983E-021  0.5000050E+01  0.7818608E-02  0.2136455E+00
        -11   -1    0    0    0    0  0.00000000000E+00  0.00000000000E+00  0.50000499739E+01  0.50000500000E+01  0.51100000000E-03 0. -1.
         11   -1    0    0    0    0 -0.00000000000E+00 -0.00000000000E+00 -0.50000499739E+01  0.50000500000E+01  0.51100000000E-03 0.  1.
         50    1    1    2    0    0  0.13564282485E-02  0.20552477351E-01 -0.87039230893E-02  0.50000500000E+01  0.50000000000E+01 0.  0.
         50    1    1    2    0    0 -0.13564282485E-02 -0.20552477351E-01  0.87039230893E-02  0.50000500000E+01  0.50000000000E+01 0.  1.
</event>
<event>
 4    1  0.4993983E-021  0.5000050E+01  0.7818608E-02  0.2136455E+00
        -11   -1    0    0    0    0  0.00000000000E+00  0.00000000000E+00  0.50000499739E+01  0.50000500000E+01  0.51100000000E-03 0. -1.
         11   -1    0    0    0    0 -0.00000000000E+00 -0.00000000000E+00 -0.50000499739E+01  0.50000500000E+01  0.51100000000E-03 0.  1.
         50    1    1    2    0    0  0.17861321799E-01 -0.61296693723E-02 -0.11975092358E-01  0.50000500000E+01  0.50000000000E+01 0.  1.
         50    1    1    2    0    0 -0.17861321799E-01  0.61296693723E-02  0.11975092358E-01  0.50000500000E+01  0.50000000000E+01 0. -1.
</event>
<event>
 4    1  0.4993983E-021  0.5000050E+01  0.7818608E-02  0.2136455E+00
        -11   -1    0    0    0    0  0.00000000000E+00  0.00000000000E+00  0.50000499739E+01  0.50000500000E+01  0.51100000000E-03 0. -1.
         11   -1    0    0    0    0 -0.00000000000E+00 -0.00000000000E+00 -0.50000499739E+01  0.50000500000E+01  0.51100000000E-03 0.  1.
         50    1    1    2    0    0 -0.77055001595E-02 -0.71082495727E-02  0.19750963402E-01  0.50000500000E+01  0.50000000000E+01 0. -1.
         50    1    1    2    0    0  0.77055001595E-02  0.71082495727E-02 -0.19750963402E-01  0.50000500000E+01  0.50000000000E+01 0. -1.
</event>
<event>
 4    1  0.4993983E-021  0.5000050E+01  0.7818608E-02  0.2136455E+00
        -11   -1    0    0    0    0  0.00000000000E+00  0.00000000000E+00  0.50000499739E+01  0.50000500000E+01  0.51100000000E-03 0.  1.
         11   -1    0    0    0    0 -0.00000000000E+00 -0.00000000000E+00 -0.50000499739E+01  0.50000500000E+01  0.51100000000E-03 0. -1.
         50    1    1    2    0    0  0.19386254022E-01 -0.54682237220E-02  0.97094893944E-02  0.50000500000E+01  0.50000000000E+01 0.  1.
         50    1    1    2    0    0 -0.19386254022E-01  0.54682237220E-02 -0.97094893944E-02  0.50000500000E+01  0.50000000000E+01 0. -1.
</event>
<event>
 4    1  0.4993983E-021  0.5000050E+01  0.7818608E-02  0.2136455E+00
        -11   -1    0    0    0    0  0.00000000000E+00  0.00000000000E+00  0.50000499739E+01  0.50000500000E+01  0.51100000000E-03 0.  1.
         11   -1    0    0    0    0 -0.00000000000E+00 -0.00000000000E+00 -0.50000499739E+01  0.50000500000E+01  0.51100000000E-03 0. -1.
         50    1    1    2    0    0  0.81620340541E-02 -0.20316898397E-01 -0.45395307691E-02  0.50000500000E+01  0.50000000000E+01 0. -1.
         50    1    1    2    0    0 -0.81620340541E-02  0.20316898397E-01  0.45395307691E-02  0.50000500000E+01  0.50000000000E+01 0.  1.
</event>
<event>
 4    1  0.4993983E-021  0.5000050E+01  0.7818608E-02  0.2136455E+00
        -11   -1    0    0    0    0  0.00000000000E+00  0.00000000000E+00  0.50000499739E+01  0.50000500000E+01  0.51100000000E-03 0. -1.
         11   -1    0    0    0    0 -0.00000000000E+00 -0.00000000000E+00 -0.50000499739E+01  0.50000500000E+01  0.51100000000E-03 0.  1.
         50    1    1    2    0    0  0.21015517358E-01 -0.26039734077E-02 -0.71812152645E-02  0.50000500000E+01  0.50000000000E+01 0.  0.
         50    1    1    2    0    0 -0.21015517358E-01  0.26039734077E-02  0.71812152645E-02  0.50000500000E+01  0.50000000000E+01 0. -1.
</event>
<event>
 4    1  0.4993983E-021  0.5000050E+01  0.7818608E-02  0.2136455E+00
        -11   -1    0    0    0    0  0.00000000000E+00  0.00000000000E+00  0.50000499739E+01  0.50000500000E+01  0.51100000000E-03 0.  1.
         11   -1    0    0    0    0 -0.00000000000E+00 -0.00000000000E+00 -0.50000499739E+01  0.50000500000E+01  0.51100000000E-03 0. -1.
         50    1    1    2    0    0 -0.46157433540E-02 -0.15737120100E-01  0.15200015271E-01  0.50000500000E+01  0.50000000000E+01 0.  1.
         50    1    1    2    0    0  0.46157433540E-02  0.15737120100E-01 -0.15200015271E-01  0.50000500000E+01  0.50000000000E+01 0.  0.
</event>
<event>
 4    1  0.4993983E-021  0.5000050E+01  0.7818608E-02  0.2136455E+00
        -11   -1    0    0    0    0  0.00000000000E+00  0.00000000000E+00  0.50000499739E+01  0.50000500000E+01  0.51100000000E-03 0.  1.
         11   -1    0    0    0    0 -0.00000000000E+00 -0.00000000000E+00 -0.50000499739E+01  0.50000500000E+01  0.51100000000E-03 0. -1.
         50    1    1    2    0    0 -0.10736419559E-01 -0.10567111119E-01 -0.16524768006E-01  0.50000500000E+01  0.50000000000E+01 0. -1.
         50    1    1    2    0    0  0.10736419559E-01  0.10567111119E-01  0.16524768006E-01  0.50000500000E+01  0.50000000000E+01 0.  1.
</event>
<event>
 4    1  0.4993983E-021  0.5000050E+01  0.7818608E-02  0.2136455E+00
        -11   -1    0    0    0    0  0.00000000000E+00  0.00000000000E+00  0.50000499739E+01  0.50000500000E+01  0.51100000000E-03 0. -1.
         11   -1    0    0    0    0 -0.00000000000E+00 -0.00000000000E+00 -0.50000499739E+01  0.50000500000E+01  0.51100000000E-03 0.  1.
         50    1    1    2    0    0  0.14630142532E-01 -0.10416562993E-01 -0.13321285407E-01  0.50000500000E+01  0.50000000000E+01 0.  1.
         50    1    1    2    0    0 -0.14630142532E-01  0.10416562993E-01  0.13321285407E-01  0.50000500000E+01  0.50000000000E+01 0. -1.
</event>
<event>
 4    1  0.4993983E-021  0.5000050E+01  0.7818608E-02  0.2136455E+00
        -11   -1    0    0    0    0  0.00000000000E+00  0.00000000000E+00  0.50000499739E+01  0.50000500000E+01  0.51100000000E-03 0. -1.
         11   -1    0    0    0    0 -0.00000000000E+00 -0.00000000000E+00 -0.50000499739E+01  0.50000500000E+01  0.51100000000E-03 0.  1.
         50    1    1    2    0    0  0.34303922206E-02 -0.21993348880E-01 -0.21277956311E-02  0.50000500000E+01  0.50000000000E+01 0. -1.
         50    1    1    2    0    0 -0.34303922206E-02  0.21993348880E-01  0.21277956311E-02  0.50000500000E+01  0.50000000000E+01 0.  0.
</event>
<event>
 4    1  0.4993983E-021  0.5000050E+01  0.7818608E-02  0.2136455E+00
        -11   -1    0    0    0    0  0.00000000000E+00  0.00000000000E+00  0.50000499739E+01  0.50000500000E+01  0.51100000000E-03 0.  1.
         11   -1    0    0    0    0 -0.00000000000E+00 -0.00000000000E+00 -0.50000499739E+01  0.50000500000E+01  0.51100000000E-03 0. -1.
         50    1    1    2    0    0  0.72053094373E-02 -0.21133036902E-01 -0.12168677801E-02  0.50000500000E+01  0.50000000000E+01 0.  0.
         50    1    1    2    0    0 -0.72053094373E-02  0.21133036902E-01  0.12168677801E-02  0.50000500000E+01  0.50000000000E+01 0. -1.
</event>
<event>
 4    1  0.4993983E-021  0.5000050E+01  0.7818608E-02  0.2136455E+00
        -11   -1    0    0    0    0  0.00000000000E+00  0.00000000000E+00  0.50000499739E+01  0.50000500000E+01  0.51100000000E-03 0.  1.
         11   -1    0    0    0    0 -0.00000000000E+00 -0.00000000000E+00 -0.50000499739E+01  0.50000500000E+01  0.51100000000E-03 0. -1.
         50    1    1    2    0    0  0.49218545452E-02 -0.21133772549E-01  0.53982872932E-02  0.50000500000E+01  0.50000000000E+01 0. -1.
         50    1    1    2    0    0 -0.49218545452E-02  0.21133772549E-01 -0.53982872932E-02  0.50000500000E+01  0.50000000000E+01 0.  0.
</event>
<event>
 4    1  0.4993983E-021  0.5000050E+01  0.7818608E-02  0.2136455E+00
        -11   -1    0    0    0    0  0.00000000000E+00  0.00000000000E+00  0.50000499739E+01  0.50000500000E+01  0.51100000000E-03 0. -1.
         11   -1    0    0    0    0 -0.00000000000E+00 -0.00000000000E+00 -0.50000499739E+01  0.50000500000E+01  0.51100000000E-03 0.  1.
         50    1    1    2    0    0  0.74432564452E-02  0.36439577140E-03 -0.21082401410E-01  0.50000500000E+01  0.50000000000E+01 0.  1.
         50    1    1    2    0    0 -0.74432564452E-02 -0.36439577140E-03  0.21082401410E-01  0.50000500000E+01  0.50000000000E+01 0.  0.
</event>
<event>
 4    1  0.4993983E-021  0.5000050E+01  0.7818608E-02  0.2136455E+00
        -11   -1    0    0    0    0  0.00000000000E+00  0.00000000000E+00  0.50000499739E+01  0.50000500000E+01  0.51100000000E-03 0. -1.
         11   -1    0    0    0    0 -0.00000000000E+00 -0.00000000000E+00 -0.50000499739E+01  0.50000500000E+01  0.51100000000E-03 0.  1.
         50    1    1    2    0    0 -0.21751447866E-01  0.51394417266E-02  0.68055453457E-03  0.50000500000E+01  0.50000000000E+01 0. -1.
         50    1    1    2    0    0  0.21751447866E-01 -0.51394417266E-02 -0.68055453457E-03  0.50000500000E+01  0.50000000000E+01 0.  1.
</event>
<event>
 4    1  0.4993983E-021  0.5000050E+01  0.7818608E-02  0.2136455E+00
        -11   -1    0    0    0    0  0.00000000000E+00  0.00000000000E+00  0.50000499739E+01  0.50000500000E+01  0.51100000000E-03 0.  1.
         11   -1    0    0    0    0 -0.00000000000E+00 -0.00000000000E+00 -0.50000499739E+01  0.50000500000E+01  0.51100000000E-03 0. -1.
         50    1    1    2    0    0 -0.14955325535E-01  0.15675909560E-01  0.55323229859E-02  0.50000500000E+01  0.50000000000E+01 0.  0.
         50    1    1    2    0    0  0.14955325535E-01 -0.15675909560E-01 -0.55323229859E-02  0.50000500000E+01  0.50000000000E+01 0.  1.
</event>
<event>
 4    1  0.4993983E-021  0.5000050E+01  0.7818608E-02  0.2136455E+00
        -11   -1    0    0    0    0  0.00000000000E+00  0.00000000000E+00  0.50000499739E+01  0.50000500000E+01  0.51100000000E-03 0. -1.
         11   -1    0    0    0    0 -0.00000000000E+00 -0.00000000000E+00 -0.50000499739E+01  0.50000500000E+01  0.51100000000E-03 0.  1.
         50    1    1    2    0    0 -0.14030205087E-01 -0.88535945956E-02 -0.14992321634E-01  0.50000500000E+01  0.50000000000E+01 0.  1.
         50    1    1    2    0    0  0.14030205087E-01  0.88535945956E-02  0.14992321634E-01  0.50000500000E+01  0.50000000000E+01 0. -1.
</event>
<event>
 4    1  0.4993983E-021  0.5000050E+01  0.7818608E-02  0.2136455E+00
        -11   -1    0    0    0    0  0.00000000000E+00  0.00000000000E+00  0.50000499739E+01  0.50000500000E+01  0.51100000000E-03 0.  1.
         11   -1    0    0    0    0 -0.00000000000E+00 -0.00000000000E+00 -0.50000499739E+01  0.50000500000E+01  0.51100000000E-03 0. -1.
         50    1    1    2    0    0 -0.53125902354E-02  0.21602994412E-01  0.22559958806E-02  0.50000500000E+01  0.50000000000E+01 0. -1.
         50    1    1    2    0    0  0.53125902354E-02 -0.21602994412E-01 -0.22559958806E-02  0.50000500000E+01  0.50000000000E+01 0.  1.
</event>
<event>
 4    1  0.4993983E-021  0.5000050E+01  0.7818608E-02  0.2136455E+00
        -11   -1    0    0    0    0  0.00000000000E+00  0.00000000000E+00  0.50000499739E+01  0.50000500000E+01  0.51100000000E-03 0.  1.
         11   -1    0    0    0    0 -0.00000000000E+00 -0.00000000000E+00 -0.50000499739E+01  0.50000500000E+01  0.51100000000E-03 0. -1.
         50    1    1    2    0    0  0.65862221743E-02 -0.77886116871E-02  0.19898786532E-01  0.50000500000E+01  0.50000000000E+01 0.  1.
         50    1    1    2    0    0 -0.65862221743E-02  0.77886116871E-02 -0.19898786532E-01  0.50000500000E+01  0.50000000000E+01 0. -1.
</event>
<event>
 4    1  0.4993983E-021  0.5000050E+01  0.7818608E-02  0.2136455E+00
        -11   -1    0    0    0    0  0.00000000000E+00  0.00000000000E+00  0.50000499739E+01  0.50000500000E+01  0.51100000000E-03 0. -1.
         11   -1    0    0    0    0 -0.00000000000E+00 -0.00000000000E+00 -0.50000499739E+01  0.50000500000E+01  0.51100000000E-03 0.  1.
         50    1    1    2    0    0 -0.38753448275E-03 -0.21365561910E-02 -0.22255054362E-01  0.50000500000E+01  0.50000000000E+01 0.  1.
         50    1    1    2    0    0  0.38753448275E-03  0.21365561910E-02  0.22255054362E-01  0.50000500000E+01  0.50000000000E+01 0.  0.
</event>
<event>
 4    1  0.4993983E-021  0.5000050E+01  0.7818608E-02  0.2136455E+00
        -11   -1    0    0    0    0  0.00000000000E+00  0.00000000000E+00  0.50000499739E+01  0.50000500000E+01  0.51100000000E-03 0.  1.
         11   -1    0    0    0    0 -0.00000000000E+00 -0.00000000000E+00 -0.50000499739E+01  0.50000500000E+01  0.51100000000E-03 0. -1.
         50    1    1    2    0    0 -0.22645490636E-03 -0.18781977296E-01  0.12132128710E-01  0.50000500000E+01  0.50000000000E+01 0. -1.
         50    1    1    2    0    0  0.22645490636E-03  0.18781977296E-01 -0.12132128710E-01  0.50000500000E+01  0.50000000000E+01 0.  0.
</event>
<event>
 4    1  0.4993983E-021  0.5000050E+01  0.7818608E-02  0.2136455E+00
        -11   -1    0    0    0    0  0.00000000000E+00  0.00000000000E+00  0.50000499739E+01  0.50000500000E+01  0.51100000000E-03 0.  1.
         11   -1    0    0    0    0 -0.00000000000E+00 -0.00000000000E+00 -0.50000499739E+01  0.50000500000E+01  0.51100000000E-03 0. -1.
         50    1    1    2    0    0 -0.19350190281E-01 -0.81659000574E-02 -0.76740284293E-02  0.50000500000E+01  0.50000000000E+01 0. -1.
         50    1    1    2    0    0  0.19350190281E-01  0.81659000574E-02  0.76740284293E-02  0.50000500000E+01  0.50000000000E+01 0.  1.
</event>
<event>
 4    1  0.4993983E-021  0.5000050E+01  0.7818608E-02  0.2136455E+00
        -11   -1    0    0    0    0  0.00000000000E+00  0.00000000000E+00  0.50000499739E+01  0.50000500000E+01  0.51100000000E-03 0. -1.
         11   -1    0    0    0    0 -0.00000000000E+00 -0.00000000000E+00 -0.50000499739E+01  0.50000500000E+01  0.51100000000E-03 0.  1.
         50    1    1    2    0    0 -0.13969798805E-02 -0.10427475002E-01 -0.19731160947E-01  0.50000500000E+01  0.50000000000E+01 0.  1.
         50    1    1    2    0    0  0.13969798805E-02  0.10427475002E-01  0.19731160947E-01  0.50000500000E+01  0.50000000000E+01 0.  0.
</event>
<event>
 4    1  0.4993983E-021  0.5000050E+01  0.7818608E-02  0.2136455E+00
        -11   -1    0    0    0    0  0.00000000000E+00  0.00000000000E+00  0.50000499739E+01  0.50000500000E+01  0.51100000000E-03 0. -1.
         11   -1    0    0    0    0 -0.00000000000E+00 -0.00000000000E+00 -0.50000499739E+01  0.50000500000E+01  0.51100000000E-03 0.  1.
         50    1    1    2    0    0 -0.17662250334E-01  0.12685214589E-01 -0.52089100573E-02  0.50000500000E+01  0.50000000000E+01 0.  1.
         50    1    1    2    0    0  0.17662250334E-01 -0.12685214589E-01  0.52089100573E-02  0.50000500000E+01  0.50000000000E+01 0. -1.
</event>
<event>
 4    1  0.4993983E-021  0.5000050E+01  0.7818608E-02  0.2136455E+00
        -11   -1    0    0    0    0  0.00000000000E+00  0.00000000000E+00  0.50000499739E+01  0.50000500000E+01  0.51100000000E-03 0.  1.
         11   -1    0    0    0    0 -0.00000000000E+00 -0.00000000000E+00 -0.50000499739E+01  0.50000500000E+01  0.51100000000E-03 0. -1.
         50    1    1    2    0    0 -0.47237223523E-02  0.93670970010E-02 -0.19747061577E-01  0.50000500000E+01  0.50000000000E+01 0. -1.
         50    1    1    2    0    0  0.47237223523E-02 -0.93670970010E-02  0.19747061577E-01  0.50000500000E+01  0.50000000000E+01 0.  0.
</event>
<event>
 4    1  0.4993983E-021  0.5000050E+01  0.7818608E-02  0.2136455E+00
        -11   -1    0    0    0    0  0.00000000000E+00  0.00000000000E+00  0.50000499739E+01  0.50000500000E+01  0.51100000000E-03 0.  1.
         11   -1    0    0    0    0 -0.00000000000E+00 -0.00000000000E+00 -0.50000499739E+01  0.50000500000E+01  0.51100000000E-03 0. -1.
         50    1    1    2    0    0  0.21531211184E-01  0.58786008516E-02  0.13606972425E-02  0.50000500000E+01  0.50000000000E+01 0.  0.
         50    1    1    2    0    0 -0.21531211184E-01 -0.58786008516E-02 -0.13606972425E-02  0.50000500000E+01  0.50000000000E+01 0.  1.
</event>
<event>
 4    1  0.4993983E-021  0.5000050E+01  0.7818608E-02  0.2136455E+00
        -11   -1    0    0    0    0  0.00000000000E+00  0.00000000000E+00  0.50000499739E+01  0.50000500000E+01  0.51100000000E-03 0.  1.
         11   -1    0    0    0    0 -0.00000000000E+00 -0.00000000000E+00 -0.50000499739E+01  0.50000500000E+01  0.51100000000E-03 0. -1.
         50    1    1    2    0    0 -0.14901741012E-01 -0.20559509580E-02 -0.16544294499E-01  0.50000500000E+01  0.50000000000E+01 0.  1.
         50    1    1    2    0    0  0.14901741012E-01  0.20559509580E-02  0.16544294499E-01  0.50000500000E+01  0.50000000000E+01 0.  1.
</event>
<event>
 4    1  0.4993983E-021  0.5000050E+01  0.7818608E-02  0.2136455E+00
        -11   -1    0    0    0    0  0.00000000000E+00  0.00000000000E+00  0.50000499739E+01  0.50000500000E+01  0.51100000000E-03 0. -1.
         11   -1    0    0    0    0 -0.00000000000E+00 -0.00000000000E+00 -0.50000499739E+01  0.50000500000E+01  0.51100000000E-03 0.  1.
         50    1    1    2    0    0  0.71324360229E-02  0.21150314747E-01 -0.13397919534E-02  0.50000500000E+01  0.50000000000E+01 0.  0.
         50    1    1    2    0    0 -0.71324360229E-02 -0.21150314747E-01  0.13397919534E-02  0.50000500000E+01  0.50000000000E+01 0.  1.
</event>
<event>
 4    1  0.4993983E-021  0.5000050E+01  0.7818608E-02  0.2136455E+00
        -11   -1    0    0    0    0  0.00000000000E+00  0.00000000000E+00  0.50000499739E+01  0.50000500000E+01  0.51100000000E-03 0.  1.
         11   -1    0    0    0    0 -0.00000000000E+00 -0.00000000000E+00 -0.50000499739E+01  0.50000500000E+01  0.51100000000E-03 0. -1.
         50    1    1    2    0    0 -0.54416877349E-02  0.20040431483E-01 -0.82928668476E-02  0.50000500000E+01  0.50000000000E+01 0.  1.
         50    1    1    2    0    0  0.54416877349E-02 -0.20040431483E-01  0.82928668476E-02  0.50000500000E+01  0.50000000000E+01 0.  0.
</event>
<event>
 4    1  0.4993983E-021  0.5000050E+01  0.7818608E-02  0.2136455E+00
        -11   -1    0    0    0    0  0.00000000000E+00  0.00000000000E+00  0.50000499739E+01  0.50000500000E+01  0.51100000000E-03 0. -1.
         11   -1    0    0    0    0 -0.00000000000E+00 -0.00000000000E+00 -0.50000499739E+01  0.50000500000E+01  0.51100000000E-03 0.  1.
         50    1    1    2    0    0  0.11878295794E-02 -0.78854922073E-02  0.20890442158E-01  0.50000500000E+01  0.50000000000E+01 0.  0.
         50    1    1    2    0    0 -0.11878295794E-02  0.78854922073E-02 -0.20890442158E-01  0.50000500000E+01  0.50000000000E+01 0.  1.
</event>
<event>
 4    1  0.4993983E-021  0.5000050E+01  0.7818608E-02  0.2136455E+00
        -11   -1    0    0    0    0  0.00000000000E+00  0.00000000000E+00  0.50000499739E+01  0.50000500000E+01  0.51100000000E-03 0. -1.
         11   -1    0    0    0    0 -0.00000000000E+00 -0.00000000000E+00 -0.50000499739E+01  0.50000500000E+01  0.51100000000E-03 0.  1.
         50    1    1    2    0    0  0.10943583964E-01 -0.12504821989E-02 -0.19459618811E-01  0.50000500000E+01  0.50000000000E+01 0.  0.
         50    1    1    2    0    0 -0.10943583964E-01  0.12504821989E-02  0.19459618811E-01  0.50000500000E+01  0.50000000000E+01 0. -1.
</event>
<event>
 4    1  0.4993983E-021  0.5000050E+01  0.7818608E-02  0.2136455E+00
        -11   -1    0    0    0    0  0.00000000000E+00  0.00000000000E+00  0.50000499739E+01  0.50000500000E+01  0.51100000000E-03 0. -1.
         11   -1    0    0    0    0 -0.00000000000E+00 -0.00000000000E+00 -0.50000499739E+01  0.50000500000E+01  0.51100000000E-03 0.  1.
         50    1    1    2    0    0  0.19417350348E-01  0.86108857558E-02  0.69872492424E-02  0.50000500000E+01  0.50000000000E+01 0.  1.
         50    1    1    2    0    0 -0.19417350348E-01 -0.86108857558E-02 -0.69872492424E-02  0.50000500000E+01  0.50000000000E+01 0.  0.
</event>
<event>
 4    1  0.4993983E-021  0.5000050E+01  0.7818608E-02  0.2136455E+00
        -11   -1    0    0    0    0  0.00000000000E+00  0.00000000000E+00  0.50000499739E+01  0.50000500000E+01  0.51100000000E-03 0.  1.
         11   -1    0    0    0    0 -0.00000000000E+00 -0.00000000000E+00 -0.50000499739E+01  0.50000500000E+01  0.51100000000E-03 0. -1.
         50    1    1    2    0    0 -0.64604249428E-02  0.14757817755E-01  0.15507166881E-01  0.50000500000E+01  0.50000000000E+01 0.  0.
         50    1    1    2    0    0  0.64604249428E-02 -0.14757817755E-01 -0.15507166881E-01  0.50000500000E+01  0.50000000000E+01 0. -1.
</event>
<event>
 4    1  0.4993983E-021  0.5000050E+01  0.7818608E-02  0.2136455E+00
        -11   -1    0    0    0    0  0.00000000000E+00  0.00000000000E+00  0.50000499739E+01  0.50000500000E+01  0.51100000000E-03 0.  1.
         11   -1    0    0    0    0 -0.00000000000E+00 -0.00000000000E+00 -0.50000499739E+01  0.50000500000E+01  0.51100000000E-03 0. -1.
         50    1    1    2    0    0  0.53418540969E-02 -0.21355428211E-02 -0.21608020540E-01  0.50000500000E+01  0.50000000000E+01 0. -1.
         50    1    1    2    0    0 -0.53418540969E-02  0.21355428211E-02  0.21608020540E-01  0.50000500000E+01  0.50000000000E+01 0.  0.
</event>
<event>
 4    1  0.4993983E-021  0.5000050E+01  0.7818608E-02  0.2136455E+00
        -11   -1    0    0    0    0  0.00000000000E+00  0.00000000000E+00  0.50000499739E+01  0.50000500000E+01  0.51100000000E-03 0.  1.
         11   -1    0    0    0    0 -0.00000000000E+00 -0.00000000000E+00 -0.50000499739E+01  0.50000500000E+01  0.51100000000E-03 0. -1.
         50    1    1    2    0    0 -0.14466547934E-01 -0.16386066602E-01  0.47136304676E-02  0.50000500000E+01  0.50000000000E+01 0. -1.
         50    1    1    2    0    0  0.14466547934E-01  0.16386066602E-01 -0.47136304676E-02  0.50000500000E+01  0.50000000000E+01 0.  1.
</event>
<event>
 4    1  0.4993983E-021  0.5000050E+01  0.7818608E-02  0.2136455E+00
        -11   -1    0    0    0    0  0.00000000000E+00  0.00000000000E+00  0.50000499739E+01  0.50000500000E+01  0.51100000000E-03 0.  1.
         11   -1    0    0    0    0 -0.00000000000E+00 -0.00000000000E+00 -0.50000499739E+01  0.50000500000E+01  0.51100000000E-03 0. -1.
         50    1    1    2    0    0 -0.20132038430E-01 -0.94998265374E-02 -0.21111192312E-02  0.50000500000E+01  0.50000000000E+01 0.  1.
         50    1    1    2    0    0  0.20132038430E-01  0.94998265374E-02  0.21111192312E-02  0.50000500000E+01  0.50000000000E+01 0. -1.
</event>
<event>
 4    1  0.4993983E-021  0.5000050E+01  0.7818608E-02  0.2136455E+00
        -11   -1    0    0    0    0  0.00000000000E+00  0.00000000000E+00  0.50000499739E+01  0.50000500000E+01  0.51100000000E-03 0. -1.
         11   -1    0    0    0    0 -0.00000000000E+00 -0.00000000000E+00 -0.50000499739E+01  0.50000500000E+01  0.51100000000E-03 0.  1.
         50    1    1    2    0    0  0.19063005341E-01 -0.41027789602E-04 -0.11687713381E-01  0.50000500000E+01  0.50000000000E+01 0.  1.
         50    1    1    2    0    0 -0.19063005341E-01  0.41027789602E-04  0.11687713381E-01  0.50000500000E+01  0.50000000000E+01 0. -1.
</event>
<event>
 4    1  0.4993983E-021  0.5000050E+01  0.7818608E-02  0.2136455E+00
        -11   -1    0    0    0    0  0.00000000000E+00  0.00000000000E+00  0.50000499739E+01  0.50000500000E+01  0.51100000000E-03 0. -1.
         11   -1    0    0    0    0 -0.00000000000E+00 -0.00000000000E+00 -0.50000499739E+01  0.50000500000E+01  0.51100000000E-03 0.  1.
         50    1    1    2    0    0 -0.80990212259E-02 -0.59327779251E-03  0.20834019695E-01  0.50000500000E+01  0.50000000000E+01 0.  0.
         50    1    1    2    0    0  0.80990212259E-02  0.59327779251E-03 -0.20834019695E-01  0.50000500000E+01  0.50000000000E+01 0.  0.
</event>
<event>
 4    1  0.4993983E-021  0.5000050E+01  0.7818608E-02  0.2136455E+00
        -11   -1    0    0    0    0  0.00000000000E+00  0.00000000000E+00  0.50000499739E+01  0.50000500000E+01  0.51100000000E-03 0.  1.
         11   -1    0    0    0    0 -0.00000000000E+00 -0.00000000000E+00 -0.50000499739E+01  0.50000500000E+01  0.51100000000E-03 0. -1.
         50    1    1    2    0    0 -0.78111310156E-02 -0.63934270737E-02 -0.19952764784E-01  0.50000500000E+01  0.50000000000E+01 0.  0.
         50    1    1    2    0    0  0.78111310156E-02  0.63934270737E-02  0.19952764784E-01  0.50000500000E+01  0.50000000000E+01 0.  0.
</event>
<event>
 4    1  0.4993983E-021  0.5000050E+01  0.7818608E-02  0.2136455E+00
        -11   -1    0    0    0    0  0.00000000000E+00  0.00000000000E+00  0.50000499739E+01  0.50000500000E+01  0.51100000000E-03 0. -1.
         11   -1    0    0    0    0 -0.00000000000E+00 -0.00000000000E+00 -0.50000499739E+01  0.50000500000E+01  0.51100000000E-03 0.  1.
         50    1    1    2    0    0 -0.14659098320E-01  0.96309195648E-02  0.13869344786E-01  0.50000500000E+01  0.50000000000E+01 0. -1.
         50    1    1    2    0    0  0.14659098320E-01 -0.96309195648E-02 -0.13869344786E-01  0.50000500000E+01  0.50000000000E+01 0.  1.
</event>
<event>
 4    1  0.4993983E-021  0.5000050E+01  0.7818608E-02  0.2136455E+00
        -11   -1    0    0    0    0  0.00000000000E+00  0.00000000000E+00  0.50000499739E+01  0.50000500000E+01  0.51100000000E-03 0.  1.
         11   -1    0    0    0    0 -0.00000000000E+00 -0.00000000000E+00 -0.50000499739E+01  0.50000500000E+01  0.51100000000E-03 0. -1.
         50    1    1    2    0    0 -0.17375009917E-01 -0.97643213561E-02  0.10137532187E-01  0.50000500000E+01  0.50000000000E+01 0.  0.
         50    1    1    2    0    0  0.17375009917E-01  0.97643213561E-02 -0.10137532187E-01  0.50000500000E+01  0.50000000000E+01 0.  0.
</event>
<event>
 4    1  0.4993983E-021  0.5000050E+01  0.7818608E-02  0.2136455E+00
        -11   -1    0    0    0    0  0.00000000000E+00  0.00000000000E+00  0.50000499739E+01  0.50000500000E+01  0.51100000000E-03 0. -1.
         11   -1    0    0    0    0 -0.00000000000E+00 -0.00000000000E+00 -0.50000499739E+01  0.50000500000E+01  0.51100000000E-03 0.  1.
         50    1    1    2    0    0  0.17268253264E-01 -0.13785494769E-01 -0.34307525682E-02  0.50000500000E+01  0.50000000000E+01 0. -1.
         50    1    1    2    0    0 -0.17268253264E-01  0.13785494769E-01  0.34307525682E-02  0.50000500000E+01  0.50000000000E+01 0.  0.
</event>
<event>
 4    1  0.4993983E-021  0.5000050E+01  0.7818608E-02  0.2136455E+00
        -11   -1    0    0    0    0  0.00000000000E+00  0.00000000000E+00  0.50000499739E+01  0.50000500000E+01  0.51100000000E-03 0. -1.
         11   -1    0    0    0    0 -0.00000000000E+00 -0.00000000000E+00 -0.50000499739E+01  0.50000500000E+01  0.51100000000E-03 0.  1.
         50    1    1    2    0    0  0.20569642424E-01  0.85705368632E-02 -0.18542406619E-02  0.50000500000E+01  0.50000000000E+01 0. -1.
         50    1    1    2    0    0 -0.20569642424E-01 -0.85705368632E-02  0.18542406619E-02  0.50000500000E+01  0.50000000000E+01 0.  0.
</event>
<event>
 4    1  0.4993983E-021  0.5000050E+01  0.7818608E-02  0.2136455E+00
        -11   -1    0    0    0    0  0.00000000000E+00  0.00000000000E+00  0.50000499739E+01  0.50000500000E+01  0.51100000000E-03 0. -1.
         11   -1    0    0    0    0 -0.00000000000E+00 -0.00000000000E+00 -0.50000499739E+01  0.50000500000E+01  0.51100000000E-03 0.  1.
         50    1    1    2    0    0 -0.13386467286E-01  0.17893962422E-01  0.78173041225E-03  0.50000500000E+01  0.50000000000E+01 0.  0.
         50    1    1    2    0    0  0.13386467286E-01 -0.17893962422E-01 -0.78173041225E-03  0.50000500000E+01  0.50000000000E+01 0.  1.
</event>
<event>
 4    1  0.4993983E-021  0.5000050E+01  0.7818608E-02  0.2136455E+00
        -11   -1    0    0    0    0  0.00000000000E+00  0.00000000000E+00  0.50000499739E+01  0.50000500000E+01  0.51100000000E-03 0.  1.
         11   -1    0    0    0    0 -0.00000000000E+00 -0.00000000000E+00 -0.50000499739E+01  0.50000500000E+01  0.51100000000E-03 0. -1.
         50    1    1    2    0    0 -0.75658495524E-02 -0.13950339314E-01 -0.15752728449E-01  0.50000500000E+01  0.50000000000E+01 0. -1.
         50    1    1    2    0    0  0.75658495524E-02  0.13950339314E-01  0.15752728449E-01  0.50000500000E+01  0.50000000000E+01 0.  0.
</event>
<event>
 4    1  0.4993983E-021  0.5000050E+01  0.7818608E-02  0.2136455E+00
        -11   -1    0    0    0    0  0.00000000000E+00  0.00000000000E+00  0.50000499739E+01  0.50000500000E+01  0.51100000000E-03 0.  1.
         11   -1    0    0    0    0 -0.00000000000E+00 -0.00000000000E+00 -0.50000499739E+01  0.50000500000E+01  0.51100000000E-03 0. -1.
         50    1    1    2    0    0 -0.17167144019E-01  0.90732647219E-02  0.11089072707E-01  0.50000500000E+01  0.50000000000E+01 0.  0.
         50    1    1    2    0    0  0.17167144019E-01 -0.90732647219E-02 -0.11089072707E-01  0.50000500000E+01  0.50000000000E+01 0.  0.
</event>
<event>
 4    1  0.4993983E-021  0.5000050E+01  0.7818608E-02  0.2136455E+00
        -11   -1    0    0    0    0  0.00000000000E+00  0.00000000000E+00  0.50000499739E+01  0.50000500000E+01  0.51100000000E-03 0. -1.
         11   -1    0    0    0    0 -0.00000000000E+00 -0.00000000000E+00 -0.50000499739E+01  0.50000500000E+01  0.51100000000E-03 0.  1.
         50    1    1    2    0    0 -0.78221769183E-02 -0.15669243098E-01  0.13902908652E-01  0.50000500000E+01  0.50000000000E+01 0. -1.
         50    1    1    2    0    0  0.78221769183E-02  0.15669243098E-01 -0.13902908652E-01  0.50000500000E+01  0.50000000000E+01 0. -1.
</event>
<event>
 4    1  0.4993983E-021  0.5000050E+01  0.7818608E-02  0.2136455E+00
        -11   -1    0    0    0    0  0.00000000000E+00  0.00000000000E+00  0.50000499739E+01  0.50000500000E+01  0.51100000000E-03 0.  1.
         11   -1    0    0    0    0 -0.00000000000E+00 -0.00000000000E+00 -0.50000499739E+01  0.50000500000E+01  0.51100000000E-03 0. -1.
         50    1    1    2    0    0  0.41134180022E-02  0.21973916405E-01 -0.47884252166E-03  0.50000500000E+01  0.50000000000E+01 0.  1.
         50    1    1    2    0    0 -0.41134180022E-02 -0.21973916405E-01  0.47884252166E-03  0.50000500000E+01  0.50000000000E+01 0. -1.
</event>
<event>
 4    1  0.4993983E-021  0.5000050E+01  0.7818608E-02  0.2136455E+00
        -11   -1    0    0    0    0  0.00000000000E+00  0.00000000000E+00  0.50000499739E+01  0.50000500000E+01  0.51100000000E-03 0. -1.
         11   -1    0    0    0    0 -0.00000000000E+00 -0.00000000000E+00 -0.50000499739E+01  0.50000500000E+01  0.51100000000E-03 0.  1.
         50    1    1    2    0    0  0.11609331373E-01 -0.18921855256E-01  0.26812904992E-02  0.50000500000E+01  0.50000000000E+01 0.  1.
         50    1    1    2    0    0 -0.11609331373E-01  0.18921855256E-01 -0.26812904992E-02  0.50000500000E+01  0.50000000000E+01 0.  0.
</event>
<event>
 4    1  0.4993983E-021  0.5000050E+01  0.7818608E-02  0.2136455E+00
        -11   -1    0    0    0    0  0.00000000000E+00  0.00000000000E+00  0.50000499739E+01  0.50000500000E+01  0.51100000000E-03 0.  1.
         11   -1    0    0    0    0 -0.00000000000E+00 -0.00000000000E+00 -0.50000499739E+01  0.50000500000E+01  0.51100000000E-03 0. -1.
         50    1    1    2    0    0 -0.90539937880E-02 -0.34907902112E-02  0.20145522584E-01  0.50000500000E+01  0.50000000000E+01 0.  1.
         50    1    1    2    0    0  0.90539937880E-02  0.34907902112E-02 -0.20145522584E-01  0.50000500000E+01  0.50000000000E+01 0. -1.
</event>
<event>
 4    1  0.4993983E-021  0.5000050E+01  0.7818608E-02  0.2136455E+00
        -11   -1    0    0    0    0  0.00000000000E+00  0.00000000000E+00  0.50000499739E+01  0.50000500000E+01  0.51100000000E-03 0. -1.
         11   -1    0    0    0    0 -0.00000000000E+00 -0.00000000000E+00 -0.50000499739E+01  0.50000500000E+01  0.51100000000E-03 0.  1.
         50    1    1    2    0    0  0.12914200840E-01 -0.69243073555E-02  0.16890230440E-01  0.50000500000E+01  0.50000000000E+01 0.  1.
         50    1    1    2    0    0 -0.12914200840E-01  0.69243073555E-02 -0.16890230440E-01  0.50000500000E+01  0.50000000000E+01 0.  0.
</event>
<event>
 4    1  0.4993983E-021  0.5000050E+01  0.7818608E-02  0.2136455E+00
        -11   -1    0    0    0    0  0.00000000000E+00  0.00000000000E+00  0.50000499739E+01  0.50000500000E+01  0.51100000000E-03 0.  1.
         11   -1    0    0    0    0 -0.00000000000E+00 -0.00000000000E+00 -0.50000499739E+01  0.50000500000E+01  0.51100000000E-03 0. -1.
         50    1    1    2    0    0  0.20407051124E-01 -0.90596344168E-02 -0.12156433134E-02  0.50000500000E+01  0.50000000000E+01 0.  0.
         50    1    1    2    0    0 -0.20407051124E-01  0.90596344168E-02  0.12156433134E-02  0.50000500000E+01  0.50000000000E+01 0. -1.
</event>
<event>
 4    1  0.4993983E-021  0.5000050E+01  0.7818608E-02  0.2136455E+00
        -11   -1    0    0    0    0  0.00000000000E+00  0.00000000000E+00  0.50000499739E+01  0.50000500000E+01  0.51100000000E-03 0. -1.
         11   -1    0    0    0    0 -0.00000000000E+00 -0.00000000000E+00 -0.50000499739E+01  0.50000500000E+01  0.51100000000E-03 0.  1.
         50    1    1    2    0    0  0.56977706397E-02 -0.15051993203E-01  0.15523382697E-01  0.50000500000E+01  0.50000000000E+01 0. -1.
         50    1    1    2    0    0 -0.56977706397E-02  0.15051993203E-01 -0.15523382697E-01  0.50000500000E+01  0.50000000000E+01 0.  1.
</event>
<event>
 4    1  0.4993983E-021  0.5000050E+01  0.7818608E-02  0.2136455E+00
        -11   -1    0    0    0    0  0.00000000000E+00  0.00000000000E+00  0.50000499739E+01  0.50000500000E+01  0.51100000000E-03 0.  1.
         11   -1    0    0    0    0 -0.00000000000E+00 -0.00000000000E+00 -0.50000499739E+01  0.50000500000E+01  0.51100000000E-03 0. -1.
         50    1    1    2    0    0 -0.69478891614E-02  0.15999161452E-01 -0.13991289041E-01  0.50000500000E+01  0.50000000000E+01 0.  0.
         50    1    1    2    0    0  0.69478891614E-02 -0.15999161452E-01  0.13991289041E-01  0.50000500000E+01  0.50000000000E+01 0. -1.
</event>
<event>
 4    1  0.4993983E-021  0.5000050E+01  0.7818608E-02  0.2136455E+00
        -11   -1    0    0    0    0  0.00000000000E+00  0.00000000000E+00  0.50000499739E+01  0.50000500000E+01  0.51100000000E-03 0. -1.
         11   -1    0    0    0    0 -0.00000000000E+00 -0.00000000000E+00 -0.50000499739E+01  0.50000500000E+01  0.51100000000E-03 0.  1.
         50    1    1    2    0    0  0.64218598790E-02 -0.19569016888E-01  0.87072265242E-02  0.50000500000E+01  0.50000000000E+01 0.  1.
         50    1    1    2    0    0 -0.64218598790E-02  0.19569016888E-01 -0.87072265242E-02  0.50000500000E+01  0.50000000000E+01 0.  0.
</event>
<event>
 4    1  0.4993983E-021  0.5000050E+01  0.7818608E-02  0.2136455E+00
        -11   -1    0    0    0    0  0.00000000000E+00  0.00000000000E+00  0.50000499739E+01  0.50000500000E+01  0.51100000000E-03 0. -1.
         11   -1    0    0    0    0 -0.00000000000E+00 -0.00000000000E+00 -0.50000499739E+01  0.50000500000E+01  0.51100000000E-03 0.  1.
         50    1    1    2    0    0  0.38559244387E-02  0.19338729261E-01  0.10542670311E-01  0.50000500000E+01  0.50000000000E+01 0. -1.
         50    1    1    2    0    0 -0.38559244387E-02 -0.19338729261E-01 -0.10542670311E-01  0.50000500000E+01  0.50000000000E+01 0.  1.
</event>
<event>
 4    1  0.4993983E-021  0.5000050E+01  0.7818608E-02  0.2136455E+00
        -11   -1    0    0    0    0  0.00000000000E+00  0.00000000000E+00  0.50000499739E+01  0.50000500000E+01  0.51100000000E-03 0.  1.
         11   -1    0    0    0    0 -0.00000000000E+00 -0.00000000000E+00 -0.50000499739E+01  0.50000500000E+01  0.51100000000E-03 0. -1.
         50    1    1    2    0    0 -0.19341284094E-02  0.17152988451E-02 -0.22210794609E-01  0.50000500000E+01  0.50000000000E+01 0.  0.
         50    1    1    2    0    0  0.19341284094E-02 -0.17152988451E-02  0.22210794609E-01  0.50000500000E+01  0.50000000000E+01 0.  1.
</event>
<event>
 4    1  0.4993983E-021  0.5000050E+01  0.7818608E-02  0.2136455E+00
        -11   -1    0    0    0    0  0.00000000000E+00  0.00000000000E+00  0.50000499739E+01  0.50000500000E+01  0.51100000000E-03 0. -1.
         11   -1    0    0    0    0 -0.00000000000E+00 -0.00000000000E+00 -0.50000499739E+01  0.50000500000E+01  0.51100000000E-03 0.  1.
         50    1    1    2    0    0 -0.22196971464E-01  0.15452383319E-02 -0.22156706249E-02  0.50000500000E+01  0.50000000000E+01 0.  0.
         50    1    1    2    0    0  0.22196971464E-01 -0.15452383319E-02  0.22156706249E-02  0.50000500000E+01  0.50000000000E+01 0.  1.
</event>
<event>
 4    1  0.4993983E-021  0.5000050E+01  0.7818608E-02  0.2136455E+00
        -11   -1    0    0    0    0  0.00000000000E+00  0.00000000000E+00  0.50000499739E+01  0.50000500000E+01  0.51100000000E-03 0.  1.
         11   -1    0    0    0    0 -0.00000000000E+00 -0.00000000000E+00 -0.50000499739E+01  0.50000500000E+01  0.51100000000E-03 0. -1.
         50    1    1    2    0    0  0.11903425277E-01  0.71349917455E-02 -0.17532907901E-01  0.50000500000E+01  0.50000000000E+01 0. -1.
         50    1    1    2    0    0 -0.11903425277E-01 -0.71349917455E-02  0.17532907901E-01  0.50000500000E+01  0.50000000000E+01 0.  1.
</event>
<event>
 4    1  0.4993983E-021  0.5000050E+01  0.7818608E-02  0.2136455E+00
        -11   -1    0    0    0    0  0.00000000000E+00  0.00000000000E+00  0.50000499739E+01  0.50000500000E+01  0.51100000000E-03 0.  1.
         11   -1    0    0    0    0 -0.00000000000E+00 -0.00000000000E+00 -0.50000499739E+01  0.50000500000E+01  0.51100000000E-03 0. -1.
         50    1    1    2    0    0 -0.19579680323E-01  0.59602871414E-02 -0.90063086587E-02  0.50000500000E+01  0.50000000000E+01 0. -1.
         50    1    1    2    0    0  0.19579680323E-01 -0.59602871414E-02  0.90063086587E-02  0.50000500000E+01  0.50000000000E+01 0.  1.
</event>
<event>
 4    1  0.4993983E-021  0.5000050E+01  0.7818608E-02  0.2136455E+00
        -11   -1    0    0    0    0  0.00000000000E+00  0.00000000000E+00  0.50000499739E+01  0.50000500000E+01  0.51100000000E-03 0.  1.
         11   -1    0    0    0    0 -0.00000000000E+00 -0.00000000000E+00 -0.50000499739E+01  0.50000500000E+01  0.51100000000E-03 0. -1.
         50    1    1    2    0    0 -0.20467492690E-01  0.89954356405E-02  0.40789779575E-03  0.50000500000E+01  0.50000000000E+01 0. -1.
         50    1    1    2    0    0  0.20467492690E-01 -0.89954356405E-02 -0.40789779575E-03  0.50000500000E+01  0.50000000000E+01 0.  1.
</event>
<event>
 4    1  0.4993983E-021  0.5000050E+01  0.7818608E-02  0.2136455E+00
        -11   -1    0    0    0    0  0.00000000000E+00  0.00000000000E+00  0.50000499739E+01  0.50000500000E+01  0.51100000000E-03 0. -1.
         11   -1    0    0    0    0 -0.00000000000E+00 -0.00000000000E+00 -0.50000499739E+01  0.50000500000E+01  0.51100000000E-03 0.  1.
         50    1    1    2    0    0 -0.53352757942E-02 -0.16386355965E-01  0.14248672583E-01  0.50000500000E+01  0.50000000000E+01 0.  0.
         50    1    1    2    0    0  0.53352757942E-02  0.16386355965E-01 -0.14248672583E-01  0.50000500000E+01  0.50000000000E+01 0.  0.
</event>
<event>
 4    1  0.4993983E-021  0.5000050E+01  0.7818608E-02  0.2136455E+00
        -11   -1    0    0    0    0  0.00000000000E+00  0.00000000000E+00  0.50000499739E+01  0.50000500000E+01  0.51100000000E-03 0.  1.
         11   -1    0    0    0    0 -0.00000000000E+00 -0.00000000000E+00 -0.50000499739E+01  0.50000500000E+01  0.51100000000E-03 0. -1.
         50    1    1    2    0    0 -0.79040527758E-02  0.15968181144E-01  0.13510945218E-01  0.50000500000E+01  0.50000000000E+01 0.  0.
         50    1    1    2    0    0  0.79040527758E-02 -0.15968181144E-01 -0.13510945218E-01  0.50000500000E+01  0.50000000000E+01 0.  0.
</event>
<event>
 4    1  0.4993983E-021  0.5000050E+01  0.7818608E-02  0.2136455E+00
        -11   -1    0    0    0    0  0.00000000000E+00  0.00000000000E+00  0.50000499739E+01  0.50000500000E+01  0.51100000000E-03 0. -1.
         11   -1    0    0    0    0 -0.00000000000E+00 -0.00000000000E+00 -0.50000499739E+01  0.50000500000E+01  0.51100000000E-03 0.  1.
         50    1    1    2    0    0  0.84362370128E-02  0.15131466752E-01  0.14137578257E-01  0.50000500000E+01  0.50000000000E+01 0. -1.
         50    1    1    2    0    0 -0.84362370128E-02 -0.15131466752E-01 -0.14137578257E-01  0.50000500000E+01  0.50000000000E+01 0.  1.
</event>
<event>
 4    1  0.4993983E-021  0.5000050E+01  0.7818608E-02  0.2136455E+00
        -11   -1    0    0    0    0  0.00000000000E+00  0.00000000000E+00  0.50000499739E+01  0.50000500000E+01  0.51100000000E-03 0.  1.
         11   -1    0    0    0    0 -0.00000000000E+00 -0.00000000000E+00 -0.50000499739E+01  0.50000500000E+01  0.51100000000E-03 0. -1.
         50    1    1    2    0    0 -0.24933798699E-02  0.22159719000E-01 -0.16530005009E-02  0.50000500000E+01  0.50000000000E+01 0. -1.
         50    1    1    2    0    0  0.24933798699E-02 -0.22159719000E-01  0.16530005009E-02  0.50000500000E+01  0.50000000000E+01 0.  1.
</event>
<event>
 4    1  0.4993983E-021  0.5000050E+01  0.7818608E-02  0.2136455E+00
        -11   -1    0    0    0    0  0.00000000000E+00  0.00000000000E+00  0.50000499739E+01  0.50000500000E+01  0.51100000000E-03 0.  1.
         11   -1    0    0    0    0 -0.00000000000E+00 -0.00000000000E+00 -0.50000499739E+01  0.50000500000E+01  0.51100000000E-03 0. -1.
         50    1    1    2    0    0  0.14001111765E-02 -0.12119663173E-01 -0.18739155617E-01  0.50000500000E+01  0.50000000000E+01 0.  1.
         50    1    1    2    0    0 -0.14001111765E-02  0.12119663173E-01  0.18739155617E-01  0.50000500000E+01  0.50000000000E+01 0.  1.
</event>
<event>
 4    1  0.4993983E-021  0.5000050E+01  0.7818608E-02  0.2136455E+00
        -11   -1    0    0    0    0  0.00000000000E+00  0.00000000000E+00  0.50000499739E+01  0.50000500000E+01  0.51100000000E-03 0.  1.
         11   -1    0    0    0    0 -0.00000000000E+00 -0.00000000000E+00 -0.50000499739E+01  0.50000500000E+01  0.51100000000E-03 0. -1.
         50    1    1    2    0    0 -0.17298393299E-01  0.13892329885E-01 -0.27876979128E-02  0.50000500000E+01  0.50000000000E+01 0. -1.
         50    1    1    2    0    0  0.17298393299E-01 -0.13892329885E-01  0.27876979128E-02  0.50000500000E+01  0.50000000000E+01 0.  1.
</event>
<event>
 4    1  0.4993983E-021  0.5000050E+01  0.7818608E-02  0.2136455E+00
        -11   -1    0    0    0    0  0.00000000000E+00  0.00000000000E+00  0.50000499739E+01  0.50000500000E+01  0.51100000000E-03 0.  1.
         11   -1    0    0    0    0 -0.00000000000E+00 -0.00000000000E+00 -0.50000499739E+01  0.50000500000E+01  0.51100000000E-03 0. -1.
         50    1    1    2    0    0  0.36450492950E-02 -0.15096668737E-01 -0.16087470549E-01  0.50000500000E+01  0.50000000000E+01 0. -1.
         50    1    1    2    0    0 -0.36450492950E-02  0.15096668737E-01  0.16087470549E-01  0.50000500000E+01  0.50000000000E+01 0.  1.
</event>
<event>
 4    1  0.4993983E-021  0.5000050E+01  0.7818608E-02  0.2136455E+00
        -11   -1    0    0    0    0  0.00000000000E+00  0.00000000000E+00  0.50000499739E+01  0.50000500000E+01  0.51100000000E-03 0.  1.
         11   -1    0    0    0    0 -0.00000000000E+00 -0.00000000000E+00 -0.50000499739E+01  0.50000500000E+01  0.51100000000E-03 0. -1.
         50    1    1    2    0    0 -0.14602586384E-01 -0.15246816507E-01 -0.73689590380E-02  0.50000500000E+01  0.50000000000E+01 0.  0.
         50    1    1    2    0    0  0.14602586384E-01  0.15246816507E-01  0.73689590380E-02  0.50000500000E+01  0.50000000000E+01 0.  0.
</event>
<event>
 4    1  0.4993983E-021  0.5000050E+01  0.7818608E-02  0.2136455E+00
        -11   -1    0    0    0    0  0.00000000000E+00  0.00000000000E+00  0.50000499739E+01  0.50000500000E+01  0.51100000000E-03 0. -1.
         11   -1    0    0    0    0 -0.00000000000E+00 -0.00000000000E+00 -0.50000499739E+01  0.50000500000E+01  0.51100000000E-03 0.  1.
         50    1    1    2    0    0  0.19703700224E-01  0.41364872304E-03  0.10563881494E-01  0.50000500000E+01  0.50000000000E+01 0.  0.
         50    1    1    2    0    0 -0.19703700224E-01 -0.41364872304E-03 -0.10563881494E-01  0.50000500000E+01  0.50000000000E+01 0.  0.
</event>
<event>
 4    1  0.4993983E-021  0.5000050E+01  0.7818608E-02  0.2136455E+00
        -11   -1    0    0    0    0  0.00000000000E+00  0.00000000000E+00  0.50000499739E+01  0.50000500000E+01  0.51100000000E-03 0.  1.
         11   -1    0    0    0    0 -0.00000000000E+00 -0.00000000000E+00 -0.50000499739E+01  0.50000500000E+01  0.51100000000E-03 0. -1.
         50    1    1    2    0    0  0.20771488711E-02 -0.20137757785E-02 -0.22172790976E-01  0.50000500000E+01  0.50000000000E+01 0.  0.
         50    1    1    2    0    0 -0.20771488711E-02  0.20137757785E-02  0.22172790976E-01  0.50000500000E+01  0.50000000000E+01 0.  1.
</event>
<event>
 4    1  0.4993983E-021  0.5000050E+01  0.7818608E-02  0.2136455E+00
        -11   -1    0    0    0    0  0.00000000000E+00  0.00000000000E+00  0.50000499739E+01  0.50000500000E+01  0.51100000000E-03 0. -1.
         11   -1    0    0    0    0 -0.00000000000E+00 -0.00000000000E+00 -0.50000499739E+01  0.50000500000E+01  0.51100000000E-03 0.  1.
         50    1    1    2    0    0 -0.19819000804E-01  0.36180463941E-02 -0.97015177889E-02  0.50000500000E+01  0.50000000000E+01 0.  1.
         50    1    1    2    0    0  0.19819000804E-01 -0.36180463941E-02  0.97015177889E-02  0.50000500000E+01  0.50000000000E+01 0. -1.
</event>
<event>
 4    1  0.4993983E-021  0.5000050E+01  0.7818608E-02  0.2136455E+00
        -11   -1    0    0    0    0  0.00000000000E+00  0.00000000000E+00  0.50000499739E+01  0.50000500000E+01  0.51100000000E-03 0. -1.
         11   -1    0    0    0    0 -0.00000000000E+00 -0.00000000000E+00 -0.50000499739E+01  0.50000500000E+01  0.51100000000E-03 0.  1.
         50    1    1    2    0    0  0.12828432530E-01 -0.17513394371E-01 -0.53586226250E-02  0.50000500000E+01  0.50000000000E+01 0.  1.
         50    1    1    2    0    0 -0.12828432530E-01  0.17513394371E-01  0.53586226250E-02  0.50000500000E+01  0.50000000000E+01 0. -1.
</event>
<event>
 4    1  0.4993983E-021  0.5000050E+01  0.7818608E-02  0.2136455E+00
        -11   -1    0    0    0    0  0.00000000000E+00  0.00000000000E+00  0.50000499739E+01  0.50000500000E+01  0.51100000000E-03 0.  1.
         11   -1    0    0    0    0 -0.00000000000E+00 -0.00000000000E+00 -0.50000499739E+01  0.50000500000E+01  0.51100000000E-03 0. -1.
         50    1    1    2    0    0  0.10555327272E-01 -0.13422910495E-01  0.14436517587E-01  0.50000500000E+01  0.50000000000E+01 0.  0.
         50    1    1    2    0    0 -0.10555327272E-01  0.13422910495E-01 -0.14436517587E-01  0.50000500000E+01  0.50000000000E+01 0.  0.
</event>
<event>
 4    1  0.4993983E-021  0.5000050E+01  0.7818608E-02  0.2136455E+00
        -11   -1    0    0    0    0  0.00000000000E+00  0.00000000000E+00  0.50000499739E+01  0.50000500000E+01  0.51100000000E-03 0.  1.
         11   -1    0    0    0    0 -0.00000000000E+00 -0.00000000000E+00 -0.50000499739E+01  0.50000500000E+01  0.51100000000E-03 0. -1.
         50    1    1    2    0    0  0.16353875596E-01 -0.28984863380E-02 -0.14971707649E-01  0.50000500000E+01  0.50000000000E+01 0.  0.
         50    1    1    2    0    0 -0.16353875596E-01  0.28984863380E-02  0.14971707649E-01  0.50000500000E+01  0.50000000000E+01 0. -1.
</event>
<event>
 4    1  0.4993983E-021  0.5000050E+01  0.7818608E-02  0.2136455E+00
        -11   -1    0    0    0    0  0.00000000000E+00  0.00000000000E+00  0.50000499739E+01  0.50000500000E+01  0.51100000000E-03 0.  1.
         11   -1    0    0    0    0 -0.00000000000E+00 -0.00000000000E+00 -0.50000499739E+01  0.50000500000E+01  0.51100000000E-03 0. -1.
         50    1    1    2    0    0 -0.14806123652E-01 -0.13027095624E-01 -0.10539259082E-01  0.50000500000E+01  0.50000000000E+01 0.  1.
         50    1    1    2    0    0  0.14806123652E-01  0.13027095624E-01  0.10539259082E-01  0.50000500000E+01  0.50000000000E+01 0.  0.
</event>
<event>
 4    1  0.4993983E-021  0.5000050E+01  0.7818608E-02  0.2136455E+00
        -11   -1    0    0    0    0  0.00000000000E+00  0.00000000000E+00  0.50000499739E+01  0.50000500000E+01  0.51100000000E-03 0. -1.
         11   -1    0    0    0    0 -0.00000000000E+00 -0.00000000000E+00 -0.50000499739E+01  0.50000500000E+01  0.51100000000E-03 0.  1.
         50    1    1    2    0    0  0.11928677612E-02 -0.21741967278E-01  0.50859045795E-02  0.50000500000E+01  0.50000000000E+01 0.  1.
         50    1    1    2    0    0 -0.11928677612E-02  0.21741967278E-01 -0.50859045795E-02  0.50000500000E+01  0.50000000000E+01 0. -1.
</event>
<event>
 4    1  0.4993983E-021  0.5000050E+01  0.7818608E-02  0.2136455E+00
        -11   -1    0    0    0    0  0.00000000000E+00  0.00000000000E+00  0.50000499739E+01  0.50000500000E+01  0.51100000000E-03 0.  1.
         11   -1    0    0    0    0 -0.00000000000E+00 -0.00000000000E+00 -0.50000499739E+01  0.50000500000E+01  0.51100000000E-03 0. -1.
         50    1    1    2    0    0  0.66874191978E-02 -0.95392986185E-02 -0.19086191509E-01  0.50000500000E+01  0.50000000000E+01 0.  0.
         50    1    1    2    0    0 -0.66874191978E-02  0.95392986185E-02  0.19086191509E-01  0.50000500000E+01  0.50000000000E+01 0. -1.
</event>
<event>
 4    1  0.4993983E-021  0.5000050E+01  0.7818608E-02  0.2136455E+00
        -11   -1    0    0    0    0  0.00000000000E+00  0.00000000000E+00  0.50000499739E+01  0.50000500000E+01  0.51100000000E-03 0. -1.
         11   -1    0    0    0    0 -0.00000000000E+00 -0.00000000000E+00 -0.50000499739E+01  0.50000500000E+01  0.51100000000E-03 0.  1.
         50    1    1    2    0    0 -0.15095824640E-02  0.18485148669E-01 -0.12490914277E-01  0.50000500000E+01  0.50000000000E+01 0.  0.
         50    1    1    2    0    0  0.15095824640E-02 -0.18485148669E-01  0.12490914277E-01  0.50000500000E+01  0.50000000000E+01 0.  1.
</event>
<event>
 4    1  0.4993983E-021  0.5000050E+01  0.7818608E-02  0.2136455E+00
        -11   -1    0    0    0    0  0.00000000000E+00  0.00000000000E+00  0.50000499739E+01  0.50000500000E+01  0.51100000000E-03 0.  1.
         11   -1    0    0    0    0 -0.00000000000E+00 -0.00000000000E+00 -0.50000499739E+01  0.50000500000E+01  0.51100000000E-03 0. -1.
         50    1    1    2    0    0 -0.16576958123E-01 -0.13057225173E-01  0.73970149499E-02  0.50000500000E+01  0.50000000000E+01 0.  0.
         50    1    1    2    0    0  0.16576958123E-01  0.13057225173E-01 -0.73970149499E-02  0.50000500000E+01  0.50000000000E+01 0.  1.
</event>
<event>
 4    1  0.4993983E-021  0.5000050E+01  0.7818608E-02  0.2136455E+00
        -11   -1    0    0    0    0  0.00000000000E+00  0.00000000000E+00  0.50000499739E+01  0.50000500000E+01  0.51100000000E-03 0.  1.
         11   -1    0    0    0    0 -0.00000000000E+00 -0.00000000000E+00 -0.50000499739E+01  0.50000500000E+01  0.51100000000E-03 0. -1.
         50    1    1    2    0    0 -0.67142368433E-02  0.10569334608E-01 -0.18525946387E-01  0.50000500000E+01  0.50000000000E+01 0.  0.
         50    1    1    2    0    0  0.67142368433E-02 -0.10569334608E-01  0.18525946387E-01  0.50000500000E+01  0.50000000000E+01 0.  1.
</event>
<event>
 4    1  0.4993983E-021  0.5000050E+01  0.7818608E-02  0.2136455E+00
        -11   -1    0    0    0    0  0.00000000000E+00  0.00000000000E+00  0.50000499739E+01  0.50000500000E+01  0.51100000000E-03 0. -1.
         11   -1    0    0    0    0 -0.00000000000E+00 -0.00000000000E+00 -0.50000499739E+01  0.50000500000E+01  0.51100000000E-03 0.  1.
         50    1    1    2    0    0 -0.18386376504E-01  0.72420696185E-02  0.10464037781E-01  0.50000500000E+01  0.50000000000E+01 0.  1.
         50    1    1    2    0    0  0.18386376504E-01 -0.72420696185E-02 -0.10464037781E-01  0.50000500000E+01  0.50000000000E+01 0.  0.
</event>
<event>
 4    1  0.4993983E-021  0.5000050E+01  0.7818608E-02  0.2136455E+00
        -11   -1    0    0    0    0  0.00000000000E+00  0.00000000000E+00  0.50000499739E+01  0.50000500000E+01  0.51100000000E-03 0. -1.
         11   -1    0    0    0    0 -0.00000000000E+00 -0.00000000000E+00 -0.50000499739E+01  0.50000500000E+01  0.51100000000E-03 0.  1.
         50    1    1    2    0    0  0.10123018527E-01 -0.63897893279E-02  0.18886439268E-01  0.50000500000E+01  0.50000000000E+01 0.  0.
         50    1    1    2    0    0 -0.10123018527E-01  0.63897893279E-02 -0.18886439268E-01  0.50000500000E+01  0.50000000000E+01 0.  1.
</event>
<event>
 4    1  0.4993983E-021  0.5000050E+01  0.7818608E-02  0.2136455E+00
        -11   -1    0    0    0    0  0.00000000000E+00  0.00000000000E+00  0.50000499739E+01  0.50000500000E+01  0.51100000000E-03 0. -1.
         11   -1    0    0    0    0 -0.00000000000E+00 -0.00000000000E+00 -0.50000499739E+01  0.50000500000E+01  0.51100000000E-03 0.  1.
         50    1    1    2    0    0 -0.94458930994E-02  0.19834692346E-01  0.41668433018E-02  0.50000500000E+01  0.50000000000E+01 0.  0.
         50    1    1    2    0    0  0.94458930994E-02 -0.19834692346E-01 -0.41668433018E-02  0.50000500000E+01  0.50000000000E+01 0. -1.
</event>
<event>
 4    1  0.4993983E-021  0.5000050E+01  0.7818608E-02  0.2136455E+00
        -11   -1    0    0    0    0  0.00000000000E+00  0.00000000000E+00  0.50000499739E+01  0.50000500000E+01  0.51100000000E-03 0.  1.
         11   -1    0    0    0    0 -0.00000000000E+00 -0.00000000000E+00 -0.50000499739E+01  0.50000500000E+01  0.51100000000E-03 0. -1.
         50    1    1    2    0    0 -0.85106105302E-02  0.17794412948E-01 -0.10532372774E-01  0.50000500000E+01  0.50000000000E+01 0.  0.
         50    1    1    2    0    0  0.85106105302E-02 -0.17794412948E-01  0.10532372774E-01  0.50000500000E+01  0.50000000000E+01 0. -1.
</event>
<event>
 4    1  0.4993983E-021  0.5000050E+01  0.7818608E-02  0.2136455E+00
        -11   -1    0    0    0    0  0.00000000000E+00  0.00000000000E+00  0.50000499739E+01  0.50000500000E+01  0.51100000000E-03 0. -1.
         11   -1    0    0    0    0 -0.00000000000E+00 -0.00000000000E+00 -0.50000499739E+01  0.50000500000E+01  0.51100000000E-03 0.  1.
         50    1    1    2    0    0  0.64859930860E-02 -0.13722599610E-01 -0.16420251327E-01  0.50000500000E+01  0.50000000000E+01 0.  0.
         50    1    1    2    0    0 -0.64859930860E-02  0.13722599610E-01  0.16420251327E-01  0.50000500000E+01  0.50000000000E+01 0.  0.
</event>
<event>
 4    1  0.4993983E-021  0.5000050E+01  0.7818608E-02  0.2136455E+00
        -11   -1    0    0    0    0  0.00000000000E+00  0.00000000000E+00  0.50000499739E+01  0.50000500000E+01  0.51100000000E-03 0. -1.
         11   -1    0    0    0    0 -0.00000000000E+00 -0.00000000000E+00 -0.50000499739E+01  0.50000500000E+01  0.51100000000E-03 0.  1.
         50    1    1    2    0    0 -0.31102029095E-02 -0.23438459196E-02 -0.22018980997E-01  0.50000500000E+01  0.50000000000E+01 0. -1.
         50    1    1    2    0    0  0.31102029095E-02  0.23438459196E-02  0.22018980997E-01  0.50000500000E+01  0.50000000000E+01 0. -1.
</event>
<event>
 4    1  0.4993983E-021  0.5000050E+01  0.7818608E-02  0.2136455E+00
        -11   -1    0    0    0    0  0.00000000000E+00  0.00000000000E+00  0.50000499739E+01  0.50000500000E+01  0.51100000000E-03 0. -1.
         11   -1    0    0    0    0 -0.00000000000E+00 -0.00000000000E+00 -0.50000499739E+01  0.50000500000E+01  0.51100000000E-03 0.  1.
         50    1    1    2    0    0 -0.18164129837E-01  0.88689657578E-02  0.95607705579E-02  0.50000500000E+01  0.50000000000E+01 0.  1.
         50    1    1    2    0    0  0.18164129837E-01 -0.88689657578E-02 -0.95607705579E-02  0.50000500000E+01  0.50000000000E+01 0.  0.
</event>
<event>
 4    1  0.4993983E-021  0.5000050E+01  0.7818608E-02  0.2136455E+00
        -11   -1    0    0    0    0  0.00000000000E+00  0.00000000000E+00  0.50000499739E+01  0.50000500000E+01  0.51100000000E-03 0.  1.
         11   -1    0    0    0    0 -0.00000000000E+00 -0.00000000000E+00 -0.50000499739E+01  0.50000500000E+01  0.51100000000E-03 0. -1.
         50    1    1    2    0    0 -0.13032450003E-01  0.17726635963E-01  0.39905042723E-02  0.50000500000E+01  0.50000000000E+01 0.  1.
         50    1    1    2    0    0  0.13032450003E-01 -0.17726635963E-01 -0.39905042723E-02  0.50000500000E+01  0.50000000000E+01 0. -1.
</event>
<event>
 4    1  0.4993983E-021  0.5000050E+01  0.7818608E-02  0.2136455E+00
        -11   -1    0    0    0    0  0.00000000000E+00  0.00000000000E+00  0.50000499739E+01  0.50000500000E+01  0.51100000000E-03 0. -1.
         11   -1    0    0    0    0 -0.00000000000E+00 -0.00000000000E+00 -0.50000499739E+01  0.50000500000E+01  0.51100000000E-03 0.  1.
         50    1    1    2    0    0  0.14849953478E-01 -0.13532251557E-02  0.16662837795E-01  0.50000500000E+01  0.50000000000E+01 0. -1.
         50    1    1    2    0    0 -0.14849953478E-01  0.13532251557E-02 -0.16662837795E-01  0.50000500000E+01  0.50000000000E+01 0. -1.
</event>
<event>
 4    1  0.4993983E-021  0.5000050E+01  0.7818608E-02  0.2136455E+00
        -11   -1    0    0    0    0  0.00000000000E+00  0.00000000000E+00  0.50000499739E+01  0.50000500000E+01  0.51100000000E-03 0. -1.
         11   -1    0    0    0    0 -0.00000000000E+00 -0.00000000000E+00 -0.50000499739E+01  0.50000500000E+01  0.51100000000E-03 0.  1.
         50    1    1    2    0    0 -0.28612749909E-02  0.22132345455E-01  0.14053078180E-02  0.50000500000E+01  0.50000000000E+01 0. -1.
         50    1    1    2    0    0  0.28612749909E-02 -0.22132345455E-01 -0.14053078180E-02  0.50000500000E+01  0.50000000000E+01 0.  0.
</event>
<event>
 4    1  0.4993983E-021  0.5000050E+01  0.7818608E-02  0.2136455E+00
        -11   -1    0    0    0    0  0.00000000000E+00  0.00000000000E+00  0.50000499739E+01  0.50000500000E+01  0.51100000000E-03 0.  1.
         11   -1    0    0    0    0 -0.00000000000E+00 -0.00000000000E+00 -0.50000499739E+01  0.50000500000E+01  0.51100000000E-03 0. -1.
         50    1    1    2    0    0  0.59738929232E-02 -0.47276341499E-02 -0.21022953615E-01  0.50000500000E+01  0.50000000000E+01 0. -1.
         50    1    1    2    0    0 -0.59738929232E-02  0.47276341499E-02  0.21022953615E-01  0.50000500000E+01  0.50000000000E+01 0.  0.
</event>
<event>
 4    1  0.4993983E-021  0.5000050E+01  0.7818608E-02  0.2136455E+00
        -11   -1    0    0    0    0  0.00000000000E+00  0.00000000000E+00  0.50000499739E+01  0.50000500000E+01  0.51100000000E-03 0.  1.
         11   -1    0    0    0    0 -0.00000000000E+00 -0.00000000000E+00 -0.50000499739E+01  0.50000500000E+01  0.51100000000E-03 0. -1.
         50    1    1    2    0    0  0.77571242619E-02  0.20909228764E-01 -0.16228603349E-02  0.50000500000E+01  0.50000000000E+01 0. -1.
         50    1    1    2    0    0 -0.77571242619E-02 -0.20909228764E-01  0.16228603349E-02  0.50000500000E+01  0.50000000000E+01 0.  1.
</event>
<event>
 4    1  0.4993983E-021  0.5000050E+01  0.7818608E-02  0.2136455E+00
        -11   -1    0    0    0    0  0.00000000000E+00  0.00000000000E+00  0.50000499739E+01  0.50000500000E+01  0.51100000000E-03 0. -1.
         11   -1    0    0    0    0 -0.00000000000E+00 -0.00000000000E+00 -0.50000499739E+01  0.50000500000E+01  0.51100000000E-03 0.  1.
         50    1    1    2    0    0 -0.22601882186E-02  0.16012091423E-01 -0.15443671114E-01  0.50000500000E+01  0.50000000000E+01 0.  0.
         50    1    1    2    0    0  0.22601882186E-02 -0.16012091423E-01  0.15443671114E-01  0.50000500000E+01  0.50000000000E+01 0.  0.
</event>
<event>
 4    1  0.4993983E-021  0.5000050E+01  0.7818608E-02  0.2136455E+00
        -11   -1    0    0    0    0  0.00000000000E+00  0.00000000000E+00  0.50000499739E+01  0.50000500000E+01  0.51100000000E-03 0. -1.
         11   -1    0    0    0    0 -0.00000000000E+00 -0.00000000000E+00 -0.50000499739E+01  0.50000500000E+01  0.51100000000E-03 0.  1.
         50    1    1    2    0    0  0.10319906667E-02  0.12466525904E-01 -0.18534379600E-01  0.50000500000E+01  0.50000000000E+01 0.  0.
         50    1    1    2    0    0 -0.10319906667E-02 -0.12466525904E-01  0.18534379600E-01  0.50000500000E+01  0.50000000000E+01 0. -1.
</event>
<event>
 4    1  0.4993983E-021  0.5000050E+01  0.7818608E-02  0.2136455E+00
        -11   -1    0    0    0    0  0.00000000000E+00  0.00000000000E+00  0.50000499739E+01  0.50000500000E+01  0.51100000000E-03 0. -1.
         11   -1    0    0    0    0 -0.00000000000E+00 -0.00000000000E+00 -0.50000499739E+01  0.50000500000E+01  0.51100000000E-03 0.  1.
         50    1    1    2    0    0 -0.13563167709E-01 -0.60704866397E-02 -0.16709044666E-01  0.50000500000E+01  0.50000000000E+01 0. -1.
         50    1    1    2    0    0  0.13563167709E-01  0.60704866397E-02  0.16709044666E-01  0.50000500000E+01  0.50000000000E+01 0.  0.
</event>
<event>
 4    1  0.4993983E-021  0.5000050E+01  0.7818608E-02  0.2136455E+00
        -11   -1    0    0    0    0  0.00000000000E+00  0.00000000000E+00  0.50000499739E+01  0.50000500000E+01  0.51100000000E-03 0.  1.
         11   -1    0    0    0    0 -0.00000000000E+00 -0.00000000000E+00 -0.50000499739E+01  0.50000500000E+01  0.51100000000E-03 0. -1.
         50    1    1    2    0    0 -0.13112667243E-01 -0.16917631866E-01  0.64694814187E-02  0.50000500000E+01  0.50000000000E+01 0.  0.
         50    1    1    2    0    0  0.13112667243E-01  0.16917631866E-01 -0.64694814187E-02  0.50000500000E+01  0.50000000000E+01 0.  1.
</event>
<event>
 4    1  0.4993983E-021  0.5000050E+01  0.7818608E-02  0.2136455E+00
        -11   -1    0    0    0    0  0.00000000000E+00  0.00000000000E+00  0.50000499739E+01  0.50000500000E+01  0.51100000000E-03 0. -1.
         11   -1    0    0    0    0 -0.00000000000E+00 -0.00000000000E+00 -0.50000499739E+01  0.50000500000E+01  0.51100000000E-03 0.  1.
         50    1    1    2    0    0  0.49514816461E-02 -0.65078896924E-02 -0.20811840410E-01  0.50000500000E+01  0.50000000000E+01 0.  1.
         50    1    1    2    0    0 -0.49514816461E-02  0.65078896924E-02  0.20811840410E-01  0.50000500000E+01  0.50000000000E+01 0.  0.
</event>
<event>
 4    1  0.4993983E-021  0.5000050E+01  0.7818608E-02  0.2136455E+00
        -11   -1    0    0    0    0  0.00000000000E+00  0.00000000000E+00  0.50000499739E+01  0.50000500000E+01  0.51100000000E-03 0.  1.
         11   -1    0    0    0    0 -0.00000000000E+00 -0.00000000000E+00 -0.50000499739E+01  0.50000500000E+01  0.51100000000E-03 0. -1.
         50    1    1    2    0    0 -0.21698387313E-01 -0.20193392192E-02  0.50104647618E-02  0.50000500000E+01  0.50000000000E+01 0.  0.
         50    1    1    2    0    0  0.21698387313E-01  0.20193392192E-02 -0.50104647618E-02  0.50000500000E+01  0.50000000000E+01 0. -1.
</event>
<event>
 4    1  0.4993983E-021  0.5000050E+01  0.7818608E-02  0.2136455E+00
        -11   -1    0    0    0    0  0.00000000000E+00  0.00000000000E+00  0.50000499739E+01  0.50000500000E+01  0.51100000000E-03 0. -1.
         11   -1    0    0    0    0 -0.00000000000E+00 -0.00000000000E+00 -0.50000499739E+01  0.50000500000E+01  0.51100000000E-03 0.  1.
         50    1    1    2    0    0  0.18676517854E-03 -0.20188912402E-01  0.96112140131E-02  0.50000500000E+01  0.50000000000E+01 0.  0.
         50    1    1    2    0    0 -0.18676517854E-03  0.20188912402E-01 -0.96112140131E-02  0.50000500000E+01  0.50000000000E+01 0.  0.
</event>
<event>
 4    1  0.4993983E-021  0.5000050E+01  0.7818608E-02  0.2136455E+00
        -11   -1    0    0    0    0  0.00000000000E+00  0.00000000000E+00  0.50000499739E+01  0.50000500000E+01  0.51100000000E-03 0.  1.
         11   -1    0    0    0    0 -0.00000000000E+00 -0.00000000000E+00 -0.50000499739E+01  0.50000500000E+01  0.51100000000E-03 0. -1.
         50    1    1    2    0    0 -0.13143163789E-01  0.65904560249E-02  0.16847125422E-01  0.50000500000E+01  0.50000000000E+01 0.  1.
         50    1    1    2    0    0  0.13143163789E-01 -0.65904560249E-02 -0.16847125422E-01  0.50000500000E+01  0.50000000000E+01 0. -1.
</event>
<event>
 4    1  0.4993983E-021  0.5000050E+01  0.7818608E-02  0.2136455E+00
        -11   -1    0    0    0    0  0.00000000000E+00  0.00000000000E+00  0.50000499739E+01  0.50000500000E+01  0.51100000000E-03 0.  1.
         11   -1    0    0    0    0 -0.00000000000E+00 -0.00000000000E+00 -0.50000499739E+01  0.50000500000E+01  0.51100000000E-03 0. -1.
         50    1    1    2    0    0  0.12472278354E-01  0.16786663985E-01  0.79153449000E-02  0.50000500000E+01  0.50000000000E+01 0.  1.
         50    1    1    2    0    0 -0.12472278354E-01 -0.16786663985E-01 -0.79153449000E-02  0.50000500000E+01  0.50000000000E+01 0. -1.
</event>
<event>
 4    1  0.4993983E-021  0.5000050E+01  0.7818608E-02  0.2136455E+00
        -11   -1    0    0    0    0  0.00000000000E+00  0.00000000000E+00  0.50000499739E+01  0.50000500000E+01  0.51100000000E-03 0.  1.
         11   -1    0    0    0    0 -0.00000000000E+00 -0.00000000000E+00 -0.50000499739E+01  0.50000500000E+01  0.51100000000E-03 0. -1.
         50    1    1    2    0    0 -0.73484632934E-04  0.21316763332E-01 -0.67522367447E-02  0.50000500000E+01  0.50000000000E+01 0.  0.
         50    1    1    2    0    0  0.73484632934E-04 -0.21316763332E-01  0.67522367447E-02  0.50000500000E+01  0.50000000000E+01 0. -1.
</event>
<event>
 4    1  0.4993983E-021  0.5000050E+01  0.7818608E-02  0.2136455E+00
        -11   -1    0    0    0    0  0.00000000000E+00  0.00000000000E+00  0.50000499739E+01  0.50000500000E+01  0.51100000000E-03 0. -1.
         11   -1    0    0    0    0 -0.00000000000E+00 -0.00000000000E+00 -0.50000499739E+01  0.50000500000E+01  0.51100000000E-03 0.  1.
         50    1    1    2    0    0  0.90045687770E-02 -0.20265819283E-01  0.28664978503E-02  0.50000500000E+01  0.50000000000E+01 0. -1.
         50    1    1    2    0    0 -0.90045687770E-02  0.20265819283E-01 -0.28664978503E-02  0.50000500000E+01  0.50000000000E+01 0.  1.
</event>
<event>
 4    1  0.4993983E-021  0.5000050E+01  0.7818608E-02  0.2136455E+00
        -11   -1    0    0    0    0  0.00000000000E+00  0.00000000000E+00  0.50000499739E+01  0.50000500000E+01  0.51100000000E-03 0. -1.
         11   -1    0    0    0    0 -0.00000000000E+00 -0.00000000000E+00 -0.50000499739E+01  0.50000500000E+01  0.51100000000E-03 0.  1.
         50    1    1    2    0    0 -0.20043820985E-01 -0.11258682554E-02 -0.98478505767E-02  0.50000500000E+01  0.50000000000E+01 0.  1.
         50    1    1    2    0    0  0.20043820985E-01  0.11258682554E-02  0.98478505767E-02  0.50000500000E+01  0.50000000000E+01 0. -1.
</event>
<event>
 4    1  0.4993983E-021  0.5000050E+01  0.7818608E-02  0.2136455E+00
        -11   -1    0    0    0    0  0.00000000000E+00  0.00000000000E+00  0.50000499739E+01  0.50000500000E+01  0.51100000000E-03 0. -1.
         11   -1    0    0    0    0 -0.00000000000E+00 -0.00000000000E+00 -0.50000499739E+01  0.50000500000E+01  0.51100000000E-03 0.  1.
         50    1    1    2    0    0  0.10660909009E-01  0.13878872561E-01  0.13918491856E-01  0.50000500000E+01  0.50000000000E+01 0.  1.
         50    1    1    2    0    0 -0.10660909009E-01 -0.13878872561E-01 -0.13918491856E-01  0.50000500000E+01  0.50000000000E+01 0.  1.
</event>
<event>
 4    1  0.4993983E-021  0.5000050E+01  0.7818608E-02  0.2136455E+00
        -11   -1    0    0    0    0  0.00000000000E+00  0.00000000000E+00  0.50000499739E+01  0.50000500000E+01  0.51100000000E-03 0. -1.
         11   -1    0    0    0    0 -0.00000000000E+00 -0.00000000000E+00 -0.50000499739E+01  0.50000500000E+01  0.51100000000E-03 0.  1.
         50    1    1    2    0    0  0.13284769876E-01  0.15437673193E-01  0.92301481967E-02  0.50000500000E+01  0.50000000000E+01 0. -1.
         50    1    1    2    0    0 -0.13284769876E-01 -0.15437673193E-01 -0.92301481967E-02  0.50000500000E+01  0.50000000000E+01 0.  1.
</event>
<event>
 4    1  0.4993983E-021  0.5000050E+01  0.7818608E-02  0.2136455E+00
        -11   -1    0    0    0    0  0.00000000000E+00  0.00000000000E+00  0.50000499739E+01  0.50000500000E+01  0.51100000000E-03 0. -1.
         11   -1    0    0    0    0 -0.00000000000E+00 -0.00000000000E+00 -0.50000499739E+01  0.50000500000E+01  0.51100000000E-03 0.  1.
         50    1    1    2    0    0 -0.11807316269E-02 -0.14003260517E-01  0.17393017786E-01  0.50000500000E+01  0.50000000000E+01 0.  0.
         50    1    1    2    0    0  0.11807316269E-02  0.14003260517E-01 -0.17393017786E-01  0.50000500000E+01  0.50000000000E+01 0. -1.
</event>
<event>
 4    1  0.4993983E-021  0.5000050E+01  0.7818608E-02  0.2136455E+00
        -11   -1    0    0    0    0  0.00000000000E+00  0.00000000000E+00  0.50000499739E+01  0.50000500000E+01  0.51100000000E-03 0.  1.
         11   -1    0    0    0    0 -0.00000000000E+00 -0.00000000000E+00 -0.50000499739E+01  0.50000500000E+01  0.51100000000E-03 0. -1.
         50    1    1    2    0    0  0.83369833297E-02  0.16081746356E-01 -0.13110096990E-01  0.50000500000E+01  0.50000000000E+01 0.  0.
         50    1    1    2    0    0 -0.83369833297E-02 -0.16081746356E-01  0.13110096990E-01  0.50000500000E+01  0.50000000000E+01 0. -1.
</event>
<event>
 4    1  0.4993983E-021  0.5000050E+01  0.7818608E-02  0.2136455E+00
        -11   -1    0    0    0    0  0.00000000000E+00  0.00000000000E+00  0.50000499739E+01  0.50000500000E+01  0.51100000000E-03 0.  1.
         11   -1    0    0    0    0 -0.00000000000E+00 -0.00000000000E+00 -0.50000499739E+01  0.50000500000E+01  0.51100000000E-03 0. -1.
         50    1    1    2    0    0  0.64259826218E-02  0.19702757057E-01 -0.83970597042E-02  0.50000500000E+01  0.50000000000E+01 0.  0.
         50    1    1    2    0    0 -0.64259826218E-02 -0.19702757057E-01  0.83970597042E-02  0.50000500000E+01  0.50000000000E+01 0.  1.
</event>
<event>
 4    1  0.4993983E-021  0.5000050E+01  0.7818608E-02  0.2136455E+00
        -11   -1    0    0    0    0  0.00000000000E+00  0.00000000000E+00  0.50000499739E+01  0.50000500000E+01  0.51100000000E-03 0.  1.
         11   -1    0    0    0    0 -0.00000000000E+00 -0.00000000000E+00 -0.50000499739E+01  0.50000500000E+01  0.51100000000E-03 0. -1.
         50    1    1    2    0    0  0.66356707675E-02  0.99254569182E-02 -0.18906498312E-01  0.50000500000E+01  0.50000000000E+01 0.  1.
         50    1    1    2    0    0 -0.66356707675E-02 -0.99254569182E-02  0.18906498312E-01  0.50000500000E+01  0.50000000000E+01 0.  1.
</event>
<event>
 4    1  0.4993983E-021  0.5000050E+01  0.7818608E-02  0.2136455E+00
        -11   -1    0    0    0    0  0.00000000000E+00  0.00000000000E+00  0.50000499739E+01  0.50000500000E+01  0.51100000000E-03 0. -1.
         11   -1    0    0    0    0 -0.00000000000E+00 -0.00000000000E+00 -0.50000499739E+01  0.50000500000E+01  0.51100000000E-03 0.  1.
         50    1    1    2    0    0  0.25504225652E-02  0.63128780664E-02  0.21298953384E-01  0.50000500000E+01  0.50000000000E+01 0. -1.
         50    1    1    2    0    0 -0.25504225652E-02 -0.63128780664E-02 -0.21298953384E-01  0.50000500000E+01  0.50000000000E+01 0.  0.
</event>
<event>
 4    1  0.4993983E-021  0.5000050E+01  0.7818608E-02  0.2136455E+00
        -11   -1    0    0    0    0  0.00000000000E+00  0.00000000000E+00  0.50000499739E+01  0.50000500000E+01  0.51100000000E-03 0. -1.
         11   -1    0    0    0    0 -0.00000000000E+00 -0.00000000000E+00 -0.50000499739E+01  0.50000500000E+01  0.51100000000E-03 0.  1.
         50    1    1    2    0    0 -0.20714381639E-01  0.52252940138E-02  0.66040287537E-02  0.50000500000E+01  0.50000000000E+01 0.  1.
         50    1    1    2    0    0  0.20714381639E-01 -0.52252940138E-02 -0.66040287537E-02  0.50000500000E+01  0.50000000000E+01 0.  0.
</event>
<event>
 4    1  0.4993983E-021  0.5000050E+01  0.7818608E-02  0.2136455E+00
        -11   -1    0    0    0    0  0.00000000000E+00  0.00000000000E+00  0.50000499739E+01  0.50000500000E+01  0.51100000000E-03 0.  1.
         11   -1    0    0    0    0 -0.00000000000E+00 -0.00000000000E+00 -0.50000499739E+01  0.50000500000E+01  0.51100000000E-03 0. -1.
         50    1    1    2    0    0  0.20919330522E-03 -0.38662273415E-02 -0.22022965838E-01  0.50000500000E+01  0.50000000000E+01 0.  0.
         50    1    1    2    0    0 -0.20919330522E-03  0.38662273415E-02  0.22022965838E-01  0.50000500000E+01  0.50000000000E+01 0.  1.
</event>
<event>
 4    1  0.4993983E-021  0.5000050E+01  0.7818608E-02  0.2136455E+00
        -11   -1    0    0    0    0  0.00000000000E+00  0.00000000000E+00  0.50000499739E+01  0.50000500000E+01  0.51100000000E-03 0.  1.
         11   -1    0    0    0    0 -0.00000000000E+00 -0.00000000000E+00 -0.50000499739E+01  0.50000500000E+01  0.51100000000E-03 0. -1.
         50    1    1    2    0    0  0.10648229786E-01  0.10969392086E-01 -0.16318398809E-01  0.50000500000E+01  0.50000000000E+01 0.  0.
         50    1    1    2    0    0 -0.10648229786E-01 -0.10969392086E-01  0.16318398809E-01  0.50000500000E+01  0.50000000000E+01 0.  0.
</event>
<event>
 4    1  0.4993983E-021  0.5000050E+01  0.7818608E-02  0.2136455E+00
        -11   -1    0    0    0    0  0.00000000000E+00  0.00000000000E+00  0.50000499739E+01  0.50000500000E+01  0.51100000000E-03 0.  1.
         11   -1    0    0    0    0 -0.00000000000E+00 -0.00000000000E+00 -0.50000499739E+01  0.50000500000E+01  0.51100000000E-03 0. -1.
         50    1    1    2    0    0  0.65482200613E-02  0.21070234285E-01 -0.36288484685E-02  0.50000500000E+01  0.50000000000E+01 0.  1.
         50    1    1    2    0    0 -0.65482200613E-02 -0.21070234285E-01  0.36288484685E-02  0.50000500000E+01  0.50000000000E+01 0.  0.
</event>
<event>
 4    1  0.4993983E-021  0.5000050E+01  0.7818608E-02  0.2136455E+00
        -11   -1    0    0    0    0  0.00000000000E+00  0.00000000000E+00  0.50000499739E+01  0.50000500000E+01  0.51100000000E-03 0.  1.
         11   -1    0    0    0    0 -0.00000000000E+00 -0.00000000000E+00 -0.50000499739E+01  0.50000500000E+01  0.51100000000E-03 0. -1.
         50    1    1    2    0    0 -0.58105044814E-02  0.16789257646E-01 -0.13577973537E-01  0.50000500000E+01  0.50000000000E+01 0. -1.
         50    1    1    2    0    0  0.58105044814E-02 -0.16789257646E-01  0.13577973537E-01  0.50000500000E+01  0.50000000000E+01 0.  1.
</event>
<event>
 4    1  0.4993983E-021  0.5000050E+01  0.7818608E-02  0.2136455E+00
        -11   -1    0    0    0    0  0.00000000000E+00  0.00000000000E+00  0.50000499739E+01  0.50000500000E+01  0.51100000000E-03 0. -1.
         11   -1    0    0    0    0 -0.00000000000E+00 -0.00000000000E+00 -0.50000499739E+01  0.50000500000E+01  0.51100000000E-03 0.  1.
         50    1    1    2    0    0 -0.21520763330E-01  0.60347983070E-02  0.66366789813E-03  0.50000500000E+01  0.50000000000E+01 0.  0.
         50    1    1    2    0    0  0.21520763330E-01 -0.60347983070E-02 -0.66366789813E-03  0.50000500000E+01  0.50000000000E+01 0. -1.
</event>
<event>
 4    1  0.4993983E-021  0.5000050E+01  0.7818608E-02  0.2136455E+00
        -11   -1    0    0    0    0  0.00000000000E+00  0.00000000000E+00  0.50000499739E+01  0.50000500000E+01  0.51100000000E-03 0.  1.
         11   -1    0    0    0    0 -0.00000000000E+00 -0.00000000000E+00 -0.50000499739E+01  0.50000500000E+01  0.51100000000E-03 0. -1.
         50    1    1    2    0    0  0.13357900127E-01 -0.75213030839E-02 -0.16278790008E-01  0.50000500000E+01  0.50000000000E+01 0. -1.
         50    1    1    2    0    0 -0.13357900127E-01  0.75213030839E-02  0.16278790008E-01  0.50000500000E+01  0.50000000000E+01 0.  0.
</event>
<event>
 4    1  0.4993983E-021  0.5000050E+01  0.7818608E-02  0.2136455E+00
        -11   -1    0    0    0    0  0.00000000000E+00  0.00000000000E+00  0.50000499739E+01  0.50000500000E+01  0.51100000000E-03 0.  1.
         11   -1    0    0    0    0 -0.00000000000E+00 -0.00000000000E+00 -0.50000499739E+01  0.50000500000E+01  0.51100000000E-03 0. -1.
         50    1    1    2    0    0  0.27852620141E-02 -0.85920472478E-02  0.20455354790E-01  0.50000500000E+01  0.50000000000E+01 0.  1.
         50    1    1    2    0    0 -0.27852620141E-02  0.85920472478E-02 -0.20455354790E-01  0.50000500000E+01  0.50000000000E+01 0. -1.
</event>
<event>
 4    1  0.4993983E-021  0.5000050E+01  0.7818608E-02  0.2136455E+00
        -11   -1    0    0    0    0  0.00000000000E+00  0.00000000000E+00  0.50000499739E+01  0.50000500000E+01  0.51100000000E-03 0. -1.
         11   -1    0    0    0    0 -0.00000000000E+00 -0.00000000000E+00 -0.50000499739E+01  0.50000500000E+01  0.51100000000E-03 0.  1.
         50    1    1    2    0    0 -0.20205671936E-01 -0.14171939467E-02  0.94723219403E-02  0.50000500000E+01  0.50000000000E+01 0. -1.
         50    1    1    2    0    0  0.20205671936E-01  0.14171939467E-02 -0.94723219403E-02  0.50000500000E+01  0.50000000000E+01 0.  1.
</event>
<event>
 4    1  0.4993983E-021  0.5000050E+01  0.7818608E-02  0.2136455E+00
        -11   -1    0    0    0    0  0.00000000000E+00  0.00000000000E+00  0.50000499739E+01  0.50000500000E+01  0.51100000000E-03 0. -1.
         11   -1    0    0    0    0 -0.00000000000E+00 -0.00000000000E+00 -0.50000499739E+01  0.50000500000E+01  0.51100000000E-03 0.  1.
         50    1    1    2    0    0  0.10143630239E-01  0.18053568401E-01 -0.84367015822E-02  0.50000500000E+01  0.50000000000E+01 0.  1.
         50    1    1    2    0    0 -0.10143630239E-01 -0.18053568401E-01  0.84367015822E-02  0.50000500000E+01  0.50000000000E+01 0. -1.
</event>
<event>
 4    1  0.4993983E-021  0.5000050E+01  0.7818608E-02  0.2136455E+00
        -11   -1    0    0    0    0  0.00000000000E+00  0.00000000000E+00  0.50000499739E+01  0.50000500000E+01  0.51100000000E-03 0.  1.
         11   -1    0    0    0    0 -0.00000000000E+00 -0.00000000000E+00 -0.50000499739E+01  0.50000500000E+01  0.51100000000E-03 0. -1.
         50    1    1    2    0    0  0.37389076284E-03  0.64973873581E-02 -0.21392677794E-01  0.50000500000E+01  0.50000000000E+01 0.  0.
         50    1    1    2    0    0 -0.37389076284E-03 -0.64973873581E-02  0.21392677794E-01  0.50000500000E+01  0.50000000000E+01 0.  0.
</event>
<event>
 4    1  0.4993983E-021  0.5000050E+01  0.7818608E-02  0.2136455E+00
        -11   -1    0    0    0    0  0.00000000000E+00  0.00000000000E+00  0.50000499739E+01  0.50000500000E+01  0.51100000000E-03 0.  1.
         11   -1    0    0    0    0 -0.00000000000E+00 -0.00000000000E+00 -0.50000499739E+01  0.50000500000E+01  0.51100000000E-03 0. -1.
         50    1    1    2    0    0 -0.10394261052E-01 -0.19453672918E-01  0.36764721118E-02  0.50000500000E+01  0.50000000000E+01 0.  1.
         50    1    1    2    0    0  0.10394261052E-01  0.19453672918E-01 -0.36764721118E-02  0.50000500000E+01  0.50000000000E+01 0. -1.
</event>
<event>
 4    1  0.4993983E-021  0.5000050E+01  0.7818608E-02  0.2136455E+00
        -11   -1    0    0    0    0  0.00000000000E+00  0.00000000000E+00  0.50000499739E+01  0.50000500000E+01  0.51100000000E-03 0.  1.
         11   -1    0    0    0    0 -0.00000000000E+00 -0.00000000000E+00 -0.50000499739E+01  0.50000500000E+01  0.51100000000E-03 0. -1.
         50    1    1    2    0    0 -0.21189805330E-01 -0.59246900932E-02  0.39865646104E-02  0.50000500000E+01  0.50000000000E+01 0. -1.
         50    1    1    2    0    0  0.21189805330E-01  0.59246900932E-02 -0.39865646104E-02  0.50000500000E+01  0.50000000000E+01 0.  1.
</event>
<event>
 4    1  0.4993983E-021  0.5000050E+01  0.7818608E-02  0.2136455E+00
        -11   -1    0    0    0    0  0.00000000000E+00  0.00000000000E+00  0.50000499739E+01  0.50000500000E+01  0.51100000000E-03 0. -1.
         11   -1    0    0    0    0 -0.00000000000E+00 -0.00000000000E+00 -0.50000499739E+01  0.50000500000E+01  0.51100000000E-03 0.  1.
         50    1    1    2    0    0  0.13118082695E-02  0.17845292810E-01  0.13409965831E-01  0.50000500000E+01  0.50000000000E+01 0.  1.
         50    1    1    2    0    0 -0.13118082695E-02 -0.17845292810E-01 -0.13409965831E-01  0.50000500000E+01  0.50000000000E+01 0.  1.
</event>
<event>
 4    1  0.4993983E-021  0.5000050E+01  0.7818608E-02  0.2136455E+00
        -11   -1    0    0    0    0  0.00000000000E+00  0.00000000000E+00  0.50000499739E+01  0.50000500000E+01  0.51100000000E-03 0. -1.
         11   -1    0    0    0    0 -0.00000000000E+00 -0.00000000000E+00 -0.50000499739E+01  0.50000500000E+01  0.51100000000E-03 0.  1.
         50    1    1    2    0    0 -0.18178546758E-01 -0.12785231571E-01  0.24659260796E-02  0.50000500000E+01  0.50000000000E+01 0.  1.
         50    1    1    2    0    0  0.18178546758E-01  0.12785231571E-01 -0.24659260796E-02  0.50000500000E+01  0.50000000000E+01 0. -1.
</event>
<event>
 4    1  0.4993983E-021  0.5000050E+01  0.7818608E-02  0.2136455E+00
        -11   -1    0    0    0    0  0.00000000000E+00  0.00000000000E+00  0.50000499739E+01  0.50000500000E+01  0.51100000000E-03 0. -1.
         11   -1    0    0    0    0 -0.00000000000E+00 -0.00000000000E+00 -0.50000499739E+01  0.50000500000E+01  0.51100000000E-03 0.  1.
         50    1    1    2    0    0  0.16611256203E-01 -0.13322083415E-02  0.14909523409E-01  0.50000500000E+01  0.50000000000E+01 0. -1.
         50    1    1    2    0    0 -0.16611256203E-01  0.13322083415E-02 -0.14909523409E-01  0.50000500000E+01  0.50000000000E+01 0.  1.
</event>
<event>
 4    1  0.4993983E-021  0.5000050E+01  0.7818608E-02  0.2136455E+00
        -11   -1    0    0    0    0  0.00000000000E+00  0.00000000000E+00  0.50000499739E+01  0.50000500000E+01  0.51100000000E-03 0. -1.
         11   -1    0    0    0    0 -0.00000000000E+00 -0.00000000000E+00 -0.50000499739E+01  0.50000500000E+01  0.51100000000E-03 0.  1.
         50    1    1    2    0    0 -0.10591270350E-01  0.22661063856E-02  0.19562521674E-01  0.50000500000E+01  0.50000000000E+01 0.  0.
         50    1    1    2    0    0  0.10591270350E-01 -0.22661063856E-02 -0.19562521674E-01  0.50000500000E+01  0.50000000000E+01 0.  1.
</event>
<event>
 4    1  0.4993983E-021  0.5000050E+01  0.7818608E-02  0.2136455E+00
        -11   -1    0    0    0    0  0.00000000000E+00  0.00000000000E+00  0.50000499739E+01  0.50000500000E+01  0.51100000000E-03 0. -1.
         11   -1    0    0    0    0 -0.00000000000E+00 -0.00000000000E+00 -0.50000499739E+01  0.50000500000E+01  0.51100000000E-03 0.  1.
         50    1    1    2    0    0  0.17758883217E-01 -0.83959911505E-02  0.10683253226E-01  0.50000500000E+01  0.50000000000E+01 0.  1.
         50    1    1    2    0    0 -0.17758883217E-01  0.83959911505E-02 -0.10683253226E-01  0.50000500000E+01  0.50000000000E+01 0.  0.
</event>
<event>
 4    1  0.4993983E-021  0.5000050E+01  0.7818608E-02  0.2136455E+00
        -11   -1    0    0    0    0  0.00000000000E+00  0.00000000000E+00  0.50000499739E+01  0.50000500000E+01  0.51100000000E-03 0.  1.
         11   -1    0    0    0    0 -0.00000000000E+00 -0.00000000000E+00 -0.50000499739E+01  0.50000500000E+01  0.51100000000E-03 0. -1.
         50    1    1    2    0    0 -0.10692957419E-01 -0.65031246986E-02 -0.18530313834E-01  0.50000500000E+01  0.50000000000E+01 0.  0.
         50    1    1    2    0    0  0.10692957419E-01  0.65031246986E-02  0.18530313834E-01  0.50000500000E+01  0.50000000000E+01 0.  1.
</event>
<event>
 4    1  0.4993983E-021  0.5000050E+01  0.7818608E-02  0.2136455E+00
        -11   -1    0    0    0    0  0.00000000000E+00  0.00000000000E+00  0.50000499739E+01  0.50000500000E+01  0.51100000000E-03 0.  1.
         11   -1    0    0    0    0 -0.00000000000E+00 -0.00000000000E+00 -0.50000499739E+01  0.50000500000E+01  0.51100000000E-03 0. -1.
         50    1    1    2    0    0  0.10987307110E-01  0.18427270913E-01  0.63021638471E-02  0.50000500000E+01  0.50000000000E+01 0. -1.
         50    1    1    2    0    0 -0.10987307110E-01 -0.18427270913E-01 -0.63021638471E-02  0.50000500000E+01  0.50000000000E+01 0.  0.
</event>
<event>
 4    1  0.4993983E-021  0.5000050E+01  0.7818608E-02  0.2136455E+00
        -11   -1    0    0    0    0  0.00000000000E+00  0.00000000000E+00  0.50000499739E+01  0.50000500000E+01  0.51100000000E-03 0. -1.
         11   -1    0    0    0    0 -0.00000000000E+00 -0.00000000000E+00 -0.50000499739E+01  0.50000500000E+01  0.51100000000E-03 0.  1.
         50    1    1    2    0    0  0.14649382278E-01  0.37869787057E-03 -0.16889484504E-01  0.50000500000E+01  0.50000000000E+01 0. -1.
         50    1    1    2    0    0 -0.14649382278E-01 -0.37869787057E-03  0.16889484504E-01  0.50000500000E+01  0.50000000000E+01 0.  0.
</event>
<event>
 4    1  0.4993983E-021  0.5000050E+01  0.7818608E-02  0.2136455E+00
        -11   -1    0    0    0    0  0.00000000000E+00  0.00000000000E+00  0.50000499739E+01  0.50000500000E+01  0.51100000000E-03 0. -1.
         11   -1    0    0    0    0 -0.00000000000E+00 -0.00000000000E+00 -0.50000499739E+01  0.50000500000E+01  0.51100000000E-03 0.  1.
         50    1    1    2    0    0 -0.12928940010E-01 -0.89211115110E-02  0.15914106310E-01  0.50000500000E+01  0.50000000000E+01 0. -1.
         50    1    1    2    0    0  0.12928940010E-01  0.89211115110E-02 -0.15914106310E-01  0.50000500000E+01  0.50000000000E+01 0.  1.
</event>
<event>
 4    1  0.4993983E-021  0.5000050E+01  0.7818608E-02  0.2136455E+00
        -11   -1    0    0    0    0  0.00000000000E+00  0.00000000000E+00  0.50000499739E+01  0.50000500000E+01  0.51100000000E-03 0. -1.
         11   -1    0    0    0    0 -0.00000000000E+00 -0.00000000000E+00 -0.50000499739E+01  0.50000500000E+01  0.51100000000E-03 0.  1.
         50    1    1    2    0    0 -0.82490973791E-02  0.20203995187E-01 -0.48737532676E-02  0.50000500000E+01  0.50000000000E+01 0.  1.
         50    1    1    2    0    0  0.82490973791E-02 -0.20203995187E-01  0.48737532676E-02  0.50000500000E+01  0.50000000000E+01 0.  1.
</event>
<event>
 4    1  0.4993983E-021  0.5000050E+01  0.7818608E-02  0.2136455E+00
        -11   -1    0    0    0    0  0.00000000000E+00  0.00000000000E+00  0.50000499739E+01  0.50000500000E+01  0.51100000000E-03 0. -1.
         11   -1    0    0    0    0 -0.00000000000E+00 -0.00000000000E+00 -0.50000499739E+01  0.50000500000E+01  0.51100000000E-03 0.  1.
         50    1    1    2    0    0  0.15291432453E-01 -0.12252596258E-01 -0.10772579935E-01  0.50000500000E+01  0.50000000000E+01 0.  1.
         50    1    1    2    0    0 -0.15291432453E-01  0.12252596258E-01  0.10772579935E-01  0.50000500000E+01  0.50000000000E+01 0. -1.
</event>
<event>
 4    1  0.4993983E-021  0.5000050E+01  0.7818608E-02  0.2136455E+00
        -11   -1    0    0    0    0  0.00000000000E+00  0.00000000000E+00  0.50000499739E+01  0.50000500000E+01  0.51100000000E-03 0.  1.
         11   -1    0    0    0    0 -0.00000000000E+00 -0.00000000000E+00 -0.50000499739E+01  0.50000500000E+01  0.51100000000E-03 0. -1.
         50    1    1    2    0    0  0.54978901893E-02 -0.14592445261E-01  0.16026111343E-01  0.50000500000E+01  0.50000000000E+01 0.  0.
         50    1    1    2    0    0 -0.54978901893E-02  0.14592445261E-01 -0.16026111343E-01  0.50000500000E+01  0.50000000000E+01 0.  0.
</event>
<event>
 4    1  0.4993983E-021  0.5000050E+01  0.7818608E-02  0.2136455E+00
        -11   -1    0    0    0    0  0.00000000000E+00  0.00000000000E+00  0.50000499739E+01  0.50000500000E+01  0.51100000000E-03 0.  1.
         11   -1    0    0    0    0 -0.00000000000E+00 -0.00000000000E+00 -0.50000499739E+01  0.50000500000E+01  0.51100000000E-03 0. -1.
         50    1    1    2    0    0 -0.11951786798E-01 -0.16409409799E-01  0.93748899941E-02  0.50000500000E+01  0.50000000000E+01 0.  1.
         50    1    1    2    0    0  0.11951786798E-01  0.16409409799E-01 -0.93748899941E-02  0.50000500000E+01  0.50000000000E+01 0.  1.
</event>
<event>
 4    1  0.4993983E-021  0.5000050E+01  0.7818608E-02  0.2136455E+00
        -11   -1    0    0    0    0  0.00000000000E+00  0.00000000000E+00  0.50000499739E+01  0.50000500000E+01  0.51100000000E-03 0. -1.
         11   -1    0    0    0    0 -0.00000000000E+00 -0.00000000000E+00 -0.50000499739E+01  0.50000500000E+01  0.51100000000E-03 0.  1.
         50    1    1    2    0    0 -0.10676717663E-01 -0.13626975472E-01  0.14153294296E-01  0.50000500000E+01  0.50000000000E+01 0.  1.
         50    1    1    2    0    0  0.10676717663E-01  0.13626975472E-01 -0.14153294296E-01  0.50000500000E+01  0.50000000000E+01 0.  0.
</event>
<event>
 4    1  0.4993983E-021  0.5000050E+01  0.7818608E-02  0.2136455E+00
        -11   -1    0    0    0    0  0.00000000000E+00  0.00000000000E+00  0.50000499739E+01  0.50000500000E+01  0.51100000000E-03 0.  1.
         11   -1    0    0    0    0 -0.00000000000E+00 -0.00000000000E+00 -0.50000499739E+01  0.50000500000E+01  0.51100000000E-03 0. -1.
         50    1    1    2    0    0  0.95454994626E-02  0.85071534484E-02 -0.18344325559E-01  0.50000500000E+01  0.50000000000E+01 0. -1.
         50    1    1    2    0    0 -0.95454994626E-02 -0.85071534484E-02  0.18344325559E-01  0.50000500000E+01  0.50000000000E+01 0.  0.
</event>
<event>
 4    1  0.4993983E-021  0.5000050E+01  0.7818608E-02  0.2136455E+00
        -11   -1    0    0    0    0  0.00000000000E+00  0.00000000000E+00  0.50000499739E+01  0.50000500000E+01  0.51100000000E-03 0. -1.
         11   -1    0    0    0    0 -0.00000000000E+00 -0.00000000000E+00 -0.50000499739E+01  0.50000500000E+01  0.51100000000E-03 0.  1.
         50    1    1    2    0    0  0.11880170267E-01  0.18722742087E-01  0.28849580869E-02  0.50000500000E+01  0.50000000000E+01 0. -1.
         50    1    1    2    0    0 -0.11880170267E-01 -0.18722742087E-01 -0.28849580869E-02  0.50000500000E+01  0.50000000000E+01 0.  1.
</event>
<event>
 4    1  0.4993983E-021  0.5000050E+01  0.7818608E-02  0.2136455E+00
        -11   -1    0    0    0    0  0.00000000000E+00  0.00000000000E+00  0.50000499739E+01  0.50000500000E+01  0.51100000000E-03 0.  1.
         11   -1    0    0    0    0 -0.00000000000E+00 -0.00000000000E+00 -0.50000499739E+01  0.50000500000E+01  0.51100000000E-03 0. -1.
         50    1    1    2    0    0  0.17022638309E-01  0.13029112765E-01  0.63619576829E-02  0.50000500000E+01  0.50000000000E+01 0.  1.
         50    1    1    2    0    0 -0.17022638309E-01 -0.13029112765E-01 -0.63619576829E-02  0.50000500000E+01  0.50000000000E+01 0. -1.
</event>
<event>
 4    1  0.4993983E-021  0.5000050E+01  0.7818608E-02  0.2136455E+00
        -11   -1    0    0    0    0  0.00000000000E+00  0.00000000000E+00  0.50000499739E+01  0.50000500000E+01  0.51100000000E-03 0. -1.
         11   -1    0    0    0    0 -0.00000000000E+00 -0.00000000000E+00 -0.50000499739E+01  0.50000500000E+01  0.51100000000E-03 0.  1.
         50    1    1    2    0    0 -0.16362271242E-01  0.15237648987E-01  0.30435693772E-03  0.50000500000E+01  0.50000000000E+01 0. -1.
         50    1    1    2    0    0  0.16362271242E-01 -0.15237648987E-01 -0.30435693772E-03  0.50000500000E+01  0.50000000000E+01 0.  0.
</event>
<event>
 4    1  0.4993983E-021  0.5000050E+01  0.7818608E-02  0.2136455E+00
        -11   -1    0    0    0    0  0.00000000000E+00  0.00000000000E+00  0.50000499739E+01  0.50000500000E+01  0.51100000000E-03 0. -1.
         11   -1    0    0    0    0 -0.00000000000E+00 -0.00000000000E+00 -0.50000499739E+01  0.50000500000E+01  0.51100000000E-03 0.  1.
         50    1    1    2    0    0 -0.40845196282E-02 -0.59754320202E-02 -0.21156876224E-01  0.50000500000E+01  0.50000000000E+01 0.  1.
         50    1    1    2    0    0  0.40845196282E-02  0.59754320202E-02  0.21156876224E-01  0.50000500000E+01  0.50000000000E+01 0.  0.
</event>
<event>
 4    1  0.4993983E-021  0.5000050E+01  0.7818608E-02  0.2136455E+00
        -11   -1    0    0    0    0  0.00000000000E+00  0.00000000000E+00  0.50000499739E+01  0.50000500000E+01  0.51100000000E-03 0.  1.
         11   -1    0    0    0    0 -0.00000000000E+00 -0.00000000000E+00 -0.50000499739E+01  0.50000500000E+01  0.51100000000E-03 0. -1.
         50    1    1    2    0    0  0.41894803282E-02  0.62404387415E-02  0.21059622003E-01  0.50000500000E+01  0.50000000000E+01 0.  1.
         50    1    1    2    0    0 -0.41894803282E-02 -0.62404387415E-02 -0.21059622003E-01  0.50000500000E+01  0.50000000000E+01 0.  0.
</event>
<event>
 4    1  0.4993983E-021  0.5000050E+01  0.7818608E-02  0.2136455E+00
        -11   -1    0    0    0    0  0.00000000000E+00  0.00000000000E+00  0.50000499739E+01  0.50000500000E+01  0.51100000000E-03 0.  1.
         11   -1    0    0    0    0 -0.00000000000E+00 -0.00000000000E+00 -0.50000499739E+01  0.50000500000E+01  0.51100000000E-03 0. -1.
         50    1    1    2    0    0  0.46700127606E-02 -0.65978834848E-02  0.20848535064E-01  0.50000500000E+01  0.50000000000E+01 0.  0.
         50    1    1    2    0    0 -0.46700127606E-02  0.65978834848E-02 -0.20848535064E-01  0.50000500000E+01  0.50000000000E+01 0.  0.
</event>
<event>
 4    1  0.4993983E-021  0.5000050E+01  0.7818608E-02  0.2136455E+00
        -11   -1    0    0    0    0  0.00000000000E+00  0.00000000000E+00  0.50000499739E+01  0.50000500000E+01  0.51100000000E-03 0.  1.
         11   -1    0    0    0    0 -0.00000000000E+00 -0.00000000000E+00 -0.50000499739E+01  0.50000500000E+01  0.51100000000E-03 0. -1.
         50    1    1    2    0    0  0.20107226678E-01  0.69057716554E-03 -0.97583317471E-02  0.50000500000E+01  0.50000000000E+01 0. -1.
         50    1    1    2    0    0 -0.20107226678E-01 -0.69057716554E-03  0.97583317471E-02  0.50000500000E+01  0.50000000000E+01 0.  1.
</event>
<event>
 4    1  0.4993983E-021  0.5000050E+01  0.7818608E-02  0.2136455E+00
        -11   -1    0    0    0    0  0.00000000000E+00  0.00000000000E+00  0.50000499739E+01  0.50000500000E+01  0.51100000000E-03 0.  1.
         11   -1    0    0    0    0 -0.00000000000E+00 -0.00000000000E+00 -0.50000499739E+01  0.50000500000E+01  0.51100000000E-03 0. -1.
         50    1    1    2    0    0 -0.21656173449E-01  0.97388765775E-03  0.54830825605E-02  0.50000500000E+01  0.50000000000E+01 0. -1.
         50    1    1    2    0    0  0.21656173449E-01 -0.97388765775E-03 -0.54830825605E-02  0.50000500000E+01  0.50000000000E+01 0.  1.
</event>
<event>
 4    1  0.4993983E-021  0.5000050E+01  0.7818608E-02  0.2136455E+00
        -11   -1    0    0    0    0  0.00000000000E+00  0.00000000000E+00  0.50000499739E+01  0.50000500000E+01  0.51100000000E-03 0.  1.
         11   -1    0    0    0    0 -0.00000000000E+00 -0.00000000000E+00 -0.50000499739E+01  0.50000500000E+01  0.51100000000E-03 0. -1.
         50    1    1    2    0    0 -0.14736600402E-01 -0.15973790853E-01  0.52605241531E-02  0.50000500000E+01  0.50000000000E+01 0.  0.
         50    1    1    2    0    0  0.14736600402E-01  0.15973790853E-01 -0.52605241531E-02  0.50000500000E+01  0.50000000000E+01 0.  0.
</event>
<event>
 4    1  0.4993983E-021  0.5000050E+01  0.7818608E-02  0.2136455E+00
        -11   -1    0    0    0    0  0.00000000000E+00  0.00000000000E+00  0.50000499739E+01  0.50000500000E+01  0.51100000000E-03 0.  1.
         11   -1    0    0    0    0 -0.00000000000E+00 -0.00000000000E+00 -0.50000499739E+01  0.50000500000E+01  0.51100000000E-03 0. -1.
         50    1    1    2    0    0 -0.22183358979E-01  0.21456010920E-02  0.18158965690E-02  0.50000500000E+01  0.50000000000E+01 0.  0.
         50    1    1    2    0    0  0.22183358979E-01 -0.21456010920E-02 -0.18158965690E-02  0.50000500000E+01  0.50000000000E+01 0.  1.
</event>
<event>
 4    1  0.4993983E-021  0.5000050E+01  0.7818608E-02  0.2136455E+00
        -11   -1    0    0    0    0  0.00000000000E+00  0.00000000000E+00  0.50000499739E+01  0.50000500000E+01  0.51100000000E-03 0. -1.
         11   -1    0    0    0    0 -0.00000000000E+00 -0.00000000000E+00 -0.50000499739E+01  0.50000500000E+01  0.51100000000E-03 0.  1.
         50    1    1    2    0    0  0.18953082312E-01 -0.11096514007E-01 -0.42012554989E-02  0.50000500000E+01  0.50000000000E+01 0.  0.
         50    1    1    2    0    0 -0.18953082312E-01  0.11096514007E-01  0.42012554989E-02  0.50000500000E+01  0.50000000000E+01 0.  1.
</event>
<event>
 4    1  0.4993983E-021  0.5000050E+01  0.7818608E-02  0.2136455E+00
        -11   -1    0    0    0    0  0.00000000000E+00  0.00000000000E+00  0.50000499739E+01  0.50000500000E+01  0.51100000000E-03 0.  1.
         11   -1    0    0    0    0 -0.00000000000E+00 -0.00000000000E+00 -0.50000499739E+01  0.50000500000E+01  0.51100000000E-03 0. -1.
         50    1    1    2    0    0 -0.17137880865E-01  0.13900437273E-01  0.36157133564E-02  0.50000500000E+01  0.50000000000E+01 0.  1.
         50    1    1    2    0    0  0.17137880865E-01 -0.13900437273E-01 -0.36157133564E-02  0.50000500000E+01  0.50000000000E+01 0. -1.
</event>
<event>
 4    1  0.4993983E-021  0.5000050E+01  0.7818608E-02  0.2136455E+00
        -11   -1    0    0    0    0  0.00000000000E+00  0.00000000000E+00  0.50000499739E+01  0.50000500000E+01  0.51100000000E-03 0.  1.
         11   -1    0    0    0    0 -0.00000000000E+00 -0.00000000000E+00 -0.50000499739E+01  0.50000500000E+01  0.51100000000E-03 0. -1.
         50    1    1    2    0    0 -0.79458272900E-02  0.16950097944E-01  0.12229493381E-01  0.50000500000E+01  0.50000000000E+01 0.  0.
         50    1    1    2    0    0  0.79458272900E-02 -0.16950097944E-01 -0.12229493381E-01  0.50000500000E+01  0.50000000000E+01 0.  0.
</event>
<event>
 4    1  0.4993983E-021  0.5000050E+01  0.7818608E-02  0.2136455E+00
        -11   -1    0    0    0    0  0.00000000000E+00  0.00000000000E+00  0.50000499739E+01  0.50000500000E+01  0.51100000000E-03 0. -1.
         11   -1    0    0    0    0 -0.00000000000E+00 -0.00000000000E+00 -0.50000499739E+01  0.50000500000E+01  0.51100000000E-03 0.  1.
         50    1    1    2    0    0 -0.15636105849E-01 -0.98728382308E-02  0.12571466070E-01  0.50000500000E+01  0.50000000000E+01 0. -1.
         50    1    1    2    0    0  0.15636105849E-01  0.98728382308E-02 -0.12571466070E-01  0.50000500000E+01  0.50000000000E+01 0.  1.
</event>
<event>
 4    1  0.4993983E-021  0.5000050E+01  0.7818608E-02  0.2136455E+00
        -11   -1    0    0    0    0  0.00000000000E+00  0.00000000000E+00  0.50000499739E+01  0.50000500000E+01  0.51100000000E-03 0.  1.
         11   -1    0    0    0    0 -0.00000000000E+00 -0.00000000000E+00 -0.50000499739E+01  0.50000500000E+01  0.51100000000E-03 0. -1.
         50    1    1    2    0    0 -0.80050232448E-02  0.10489700176E-01  0.18052376383E-01  0.50000500000E+01  0.50000000000E+01 0.  0.
         50    1    1    2    0    0  0.80050232448E-02 -0.10489700176E-01 -0.18052376383E-01  0.50000500000E+01  0.50000000000E+01 0. -1.
</event>
<event>
 4    1  0.4993983E-021  0.5000050E+01  0.7818608E-02  0.2136455E+00
        -11   -1    0    0    0    0  0.00000000000E+00  0.00000000000E+00  0.50000499739E+01  0.50000500000E+01  0.51100000000E-03 0. -1.
         11   -1    0    0    0    0 -0.00000000000E+00 -0.00000000000E+00 -0.50000499739E+01  0.50000500000E+01  0.51100000000E-03 0.  1.
         50    1    1    2    0    0 -0.99325661908E-02  0.10953900160E-01  0.16773750330E-01  0.50000500000E+01  0.50000000000E+01 0. -1.
         50    1    1    2    0    0  0.99325661908E-02 -0.10953900160E-01 -0.16773750330E-01  0.50000500000E+01  0.50000000000E+01 0.  1.
</event>
<event>
 4    1  0.4993983E-021  0.5000050E+01  0.7818608E-02  0.2136455E+00
        -11   -1    0    0    0    0  0.00000000000E+00  0.00000000000E+00  0.50000499739E+01  0.50000500000E+01  0.51100000000E-03 0. -1.
         11   -1    0    0    0    0 -0.00000000000E+00 -0.00000000000E+00 -0.50000499739E+01  0.50000500000E+01  0.51100000000E-03 0.  1.
         50    1    1    2    0    0  0.14709442364E-01 -0.41479767579E-02 -0.16322655855E-01  0.50000500000E+01  0.50000000000E+01 0.  0.
         50    1    1    2    0    0 -0.14709442364E-01  0.41479767579E-02  0.16322655855E-01  0.50000500000E+01  0.50000000000E+01 0.  1.
</event>
<event>
 4    1  0.4993983E-021  0.5000050E+01  0.7818608E-02  0.2136455E+00
        -11   -1    0    0    0    0  0.00000000000E+00  0.00000000000E+00  0.50000499739E+01  0.50000500000E+01  0.51100000000E-03 0. -1.
         11   -1    0    0    0    0 -0.00000000000E+00 -0.00000000000E+00 -0.50000499739E+01  0.50000500000E+01  0.51100000000E-03 0.  1.
         50    1    1    2    0    0  0.54369929946E-02  0.63636298425E-02  0.20735134974E-01  0.50000500000E+01  0.50000000000E+01 0. -1.
         50    1    1    2    0    0 -0.54369929946E-02 -0.63636298425E-02 -0.20735134974E-01  0.50000500000E+01  0.50000000000E+01 0. -1.
</event>
<event>
 4    1  0.4993983E-021  0.5000050E+01  0.7818608E-02  0.2136455E+00
        -11   -1    0    0    0    0  0.00000000000E+00  0.00000000000E+00  0.50000499739E+01  0.50000500000E+01  0.51100000000E-03 0. -1.
         11   -1    0    0    0    0 -0.00000000000E+00 -0.00000000000E+00 -0.50000499739E+01  0.50000500000E+01  0.51100000000E-03 0.  1.
         50    1    1    2    0    0 -0.17663109998E-01 -0.71034846828E-02  0.11728493107E-01  0.50000500000E+01  0.50000000000E+01 0.  0.
         50    1    1    2    0    0  0.17663109998E-01  0.71034846828E-02 -0.11728493107E-01  0.50000500000E+01  0.50000000000E+01 0. -1.
</event>
<event>
 4    1  0.4993983E-021  0.5000050E+01  0.7818608E-02  0.2136455E+00
        -11   -1    0    0    0    0  0.00000000000E+00  0.00000000000E+00  0.50000499739E+01  0.50000500000E+01  0.51100000000E-03 0. -1.
         11   -1    0    0    0    0 -0.00000000000E+00 -0.00000000000E+00 -0.50000499739E+01  0.50000500000E+01  0.51100000000E-03 0.  1.
         50    1    1    2    0    0 -0.33311263549E-02  0.21852619105E-01 -0.33718148595E-02  0.50000500000E+01  0.50000000000E+01 0.  0.
         50    1    1    2    0    0  0.33311263549E-02 -0.21852619105E-01  0.33718148595E-02  0.50000500000E+01  0.50000000000E+01 0.  0.
</event>
<event>
 4    1  0.4993983E-021  0.5000050E+01  0.7818608E-02  0.2136455E+00
        -11   -1    0    0    0    0  0.00000000000E+00  0.00000000000E+00  0.50000499739E+01  0.50000500000E+01  0.51100000000E-03 0. -1.
         11   -1    0    0    0    0 -0.00000000000E+00 -0.00000000000E+00 -0.50000499739E+01  0.50000500000E+01  0.51100000000E-03 0.  1.
         50    1    1    2    0    0  0.71720050675E-02 -0.20139391045E-01 -0.65551332285E-02  0.50000500000E+01  0.50000000000E+01 0.  0.
         50    1    1    2    0    0 -0.71720050675E-02  0.20139391045E-01  0.65551332285E-02  0.50000500000E+01  0.50000000000E+01 0. -1.
</event>
<event>
 4    1  0.4993983E-021  0.5000050E+01  0.7818608E-02  0.2136455E+00
        -11   -1    0    0    0    0  0.00000000000E+00  0.00000000000E+00  0.50000499739E+01  0.50000500000E+01  0.51100000000E-03 0. -1.
         11   -1    0    0    0    0 -0.00000000000E+00 -0.00000000000E+00 -0.50000499739E+01  0.50000500000E+01  0.51100000000E-03 0.  1.
         50    1    1    2    0    0  0.10598355892E-01  0.12407222496E-01 -0.15288498367E-01  0.50000500000E+01  0.50000000000E+01 0.  1.
         50    1    1    2    0    0 -0.10598355892E-01 -0.12407222496E-01  0.15288498367E-01  0.50000500000E+01  0.50000000000E+01 0. -1.
</event>
<event>
 4    1  0.4993983E-021  0.5000050E+01  0.7818608E-02  0.2136455E+00
        -11   -1    0    0    0    0  0.00000000000E+00  0.00000000000E+00  0.50000499739E+01  0.50000500000E+01  0.51100000000E-03 0.  1.
         11   -1    0    0    0    0 -0.00000000000E+00 -0.00000000000E+00 -0.50000499739E+01  0.50000500000E+01  0.51100000000E-03 0. -1.
         50    1    1    2    0    0  0.12598695872E-01  0.77599219874E-02  0.16764813541E-01  0.50000500000E+01  0.50000000000E+01 0.  0.
         50    1    1    2    0    0 -0.12598695872E-01 -0.77599219874E-02 -0.16764813541E-01  0.50000500000E+01  0.50000000000E+01 0. -1.
</event>
<event>
 4    1  0.4993983E-021  0.5000050E+01  0.7818608E-02  0.2136455E+00
        -11   -1    0    0    0    0  0.00000000000E+00  0.00000000000E+00  0.50000499739E+01  0.50000500000E+01  0.51100000000E-03 0.  1.
         11   -1    0    0    0    0 -0.00000000000E+00 -0.00000000000E+00 -0.50000499739E+01  0.50000500000E+01  0.51100000000E-03 0. -1.
         50    1    1    2    0    0  0.11918160776E-01  0.11770922721E-01  0.14812336818E-01  0.50000500000E+01  0.50000000000E+01 0.  1.
         50    1    1    2    0    0 -0.11918160776E-01 -0.11770922721E-01 -0.14812336818E-01  0.50000500000E+01  0.50000000000E+01 0. -1.
</event>
<event>
 4    1  0.4993983E-021  0.5000050E+01  0.7818608E-02  0.2136455E+00
        -11   -1    0    0    0    0  0.00000000000E+00  0.00000000000E+00  0.50000499739E+01  0.50000500000E+01  0.51100000000E-03 0.  1.
         11   -1    0    0    0    0 -0.00000000000E+00 -0.00000000000E+00 -0.50000499739E+01  0.50000500000E+01  0.51100000000E-03 0. -1.
         50    1    1    2    0    0 -0.17119438839E-01 -0.96299450837E-02 -0.10686040966E-01  0.50000500000E+01  0.50000000000E+01 0.  1.
         50    1    1    2    0    0  0.17119438839E-01  0.96299450837E-02  0.10686040966E-01  0.50000500000E+01  0.50000000000E+01 0.  0.
</event>
<event>
 4    1  0.4993983E-021  0.5000050E+01  0.7818608E-02  0.2136455E+00
        -11   -1    0    0    0    0  0.00000000000E+00  0.00000000000E+00  0.50000499739E+01  0.50000500000E+01  0.51100000000E-03 0. -1.
         11   -1    0    0    0    0 -0.00000000000E+00 -0.00000000000E+00 -0.50000499739E+01  0.50000500000E+01  0.51100000000E-03 0.  1.
         50    1    1    2    0    0  0.23631626671E-02 -0.20921830528E-01 -0.75296062022E-02  0.50000500000E+01  0.50000000000E+01 0.  1.
         50    1    1    2    0    0 -0.23631626671E-02  0.20921830528E-01  0.75296062022E-02  0.50000500000E+01  0.50000000000E+01 0. -1.
</event>
<event>
 4    1  0.4993983E-021  0.5000050E+01  0.7818608E-02  0.2136455E+00
        -11   -1    0    0    0    0  0.00000000000E+00  0.00000000000E+00  0.50000499739E+01  0.50000500000E+01  0.51100000000E-03 0. -1.
         11   -1    0    0    0    0 -0.00000000000E+00 -0.00000000000E+00 -0.50000499739E+01  0.50000500000E+01  0.51100000000E-03 0.  1.
         50    1    1    2    0    0  0.19144126200E-02 -0.20407599832E-01 -0.89368559016E-02  0.50000500000E+01  0.50000000000E+01 0.  0.
         50    1    1    2    0    0 -0.19144126200E-02  0.20407599832E-01  0.89368559016E-02  0.50000500000E+01  0.50000000000E+01 0.  0.
</event>
<event>
 4    1  0.4993983E-021  0.5000050E+01  0.7818608E-02  0.2136455E+00
        -11   -1    0    0    0    0  0.00000000000E+00  0.00000000000E+00  0.50000499739E+01  0.50000500000E+01  0.51100000000E-03 0. -1.
         11   -1    0    0    0    0 -0.00000000000E+00 -0.00000000000E+00 -0.50000499739E+01  0.50000500000E+01  0.51100000000E-03 0.  1.
         50    1    1    2    0    0 -0.19226419968E-01  0.88007515553E-02 -0.72728293855E-02  0.50000500000E+01  0.50000000000E+01 0.  0.
         50    1    1    2    0    0  0.19226419968E-01 -0.88007515553E-02  0.72728293855E-02  0.50000500000E+01  0.50000000000E+01 0.  0.
</event>
<event>
 4    1  0.4993983E-021  0.5000050E+01  0.7818608E-02  0.2136455E+00
        -11   -1    0    0    0    0  0.00000000000E+00  0.00000000000E+00  0.50000499739E+01  0.50000500000E+01  0.51100000000E-03 0.  1.
         11   -1    0    0    0    0 -0.00000000000E+00 -0.00000000000E+00 -0.50000499739E+01  0.50000500000E+01  0.51100000000E-03 0. -1.
         50    1    1    2    0    0  0.15916597833E-01 -0.64477188581E-02 -0.14321010263E-01  0.50000500000E+01  0.50000000000E+01 0.  0.
         50    1    1    2    0    0 -0.15916597833E-01  0.64477188581E-02  0.14321010263E-01  0.50000500000E+01  0.50000000000E+01 0. -1.
</event>
<event>
 4    1  0.4993983E-021  0.5000050E+01  0.7818608E-02  0.2136455E+00
        -11   -1    0    0    0    0  0.00000000000E+00  0.00000000000E+00  0.50000499739E+01  0.50000500000E+01  0.51100000000E-03 0.  1.
         11   -1    0    0    0    0 -0.00000000000E+00 -0.00000000000E+00 -0.50000499739E+01  0.50000500000E+01  0.51100000000E-03 0. -1.
         50    1    1    2    0    0 -0.18539249372E-01  0.12501888807E-01 -0.38845504832E-04  0.50000500000E+01  0.50000000000E+01 0.  1.
         50    1    1    2    0    0  0.18539249372E-01 -0.12501888807E-01  0.38845504832E-04  0.50000500000E+01  0.50000000000E+01 0. -1.
</event>
<event>
 4    1  0.4993983E-021  0.5000050E+01  0.7818608E-02  0.2136455E+00
        -11   -1    0    0    0    0  0.00000000000E+00  0.00000000000E+00  0.50000499739E+01  0.50000500000E+01  0.51100000000E-03 0.  1.
         11   -1    0    0    0    0 -0.00000000000E+00 -0.00000000000E+00 -0.50000499739E+01  0.50000500000E+01  0.51100000000E-03 0. -1.
         50    1    1    2    0    0  0.36758743892E-02  0.16139944133E-01 -0.15033051948E-01  0.50000500000E+01  0.50000000000E+01 0. -1.
         50    1    1    2    0    0 -0.36758743892E-02 -0.16139944133E-01  0.15033051948E-01  0.50000500000E+01  0.50000000000E+01 0.  1.
</event>
<event>
 4    1  0.4993983E-021  0.5000050E+01  0.7818608E-02  0.2136455E+00
        -11   -1    0    0    0    0  0.00000000000E+00  0.00000000000E+00  0.50000499739E+01  0.50000500000E+01  0.51100000000E-03 0. -1.
         11   -1    0    0    0    0 -0.00000000000E+00 -0.00000000000E+00 -0.50000499739E+01  0.50000500000E+01  0.51100000000E-03 0.  1.
         50    1    1    2    0    0  0.14019705824E-01  0.52741630076E-02  0.16602215309E-01  0.50000500000E+01  0.50000000000E+01 0. -1.
         50    1    1    2    0    0 -0.14019705824E-01 -0.52741630076E-02 -0.16602215309E-01  0.50000500000E+01  0.50000000000E+01 0.  1.
</event>
<event>
 4    1  0.4993983E-021  0.5000050E+01  0.7818608E-02  0.2136455E+00
        -11   -1    0    0    0    0  0.00000000000E+00  0.00000000000E+00  0.50000499739E+01  0.50000500000E+01  0.51100000000E-03 0.  1.
         11   -1    0    0    0    0 -0.00000000000E+00 -0.00000000000E+00 -0.50000499739E+01  0.50000500000E+01  0.51100000000E-03 0. -1.
         50    1    1    2    0    0 -0.10290528481E-01  0.59551348390E-02 -0.18937895676E-01  0.50000500000E+01  0.50000000000E+01 0. -1.
         50    1    1    2    0    0  0.10290528481E-01 -0.59551348390E-02  0.18937895676E-01  0.50000500000E+01  0.50000000000E+01 0.  0.
</event>
<event>
 4    1  0.4993983E-021  0.5000050E+01  0.7818608E-02  0.2136455E+00
        -11   -1    0    0    0    0  0.00000000000E+00  0.00000000000E+00  0.50000499739E+01  0.50000500000E+01  0.51100000000E-03 0.  1.
         11   -1    0    0    0    0 -0.00000000000E+00 -0.00000000000E+00 -0.50000499739E+01  0.50000500000E+01  0.51100000000E-03 0. -1.
         50    1    1    2    0    0  0.20164951806E-01  0.87499330147E-02 -0.41007183403E-02  0.50000500000E+01  0.50000000000E+01 0.  1.
         50    1    1    2    0    0 -0.20164951806E-01 -0.87499330147E-02  0.41007183403E-02  0.50000500000E+01  0.50000000000E+01 0. -1.
</event>
<event>
 4    1  0.4993983E-021  0.5000050E+01  0.7818608E-02  0.2136455E+00
        -11   -1    0    0    0    0  0.00000000000E+00  0.00000000000E+00  0.50000499739E+01  0.50000500000E+01  0.51100000000E-03 0.  1.
         11   -1    0    0    0    0 -0.00000000000E+00 -0.00000000000E+00 -0.50000499739E+01  0.50000500000E+01  0.51100000000E-03 0. -1.
         50    1    1    2    0    0 -0.19692698573E-01 -0.12855287944E-02  0.10514158960E-01  0.50000500000E+01  0.50000000000E+01 0. -1.
         50    1    1    2    0    0  0.19692698573E-01  0.12855287944E-02 -0.10514158960E-01  0.50000500000E+01  0.50000000000E+01 0.  0.
</event>
<event>
 4    1  0.4993983E-021  0.5000050E+01  0.7818608E-02  0.2136455E+00
        -11   -1    0    0    0    0  0.00000000000E+00  0.00000000000E+00  0.50000499739E+01  0.50000500000E+01  0.51100000000E-03 0.  1.
         11   -1    0    0    0    0 -0.00000000000E+00 -0.00000000000E+00 -0.50000499739E+01  0.50000500000E+01  0.51100000000E-03 0. -1.
         50    1    1    2    0    0  0.18103494894E-01  0.13102245561E-01  0.77274438502E-03  0.50000500000E+01  0.50000000000E+01 0. -1.
         50    1    1    2    0    0 -0.18103494894E-01 -0.13102245561E-01 -0.77274438502E-03  0.50000500000E+01  0.50000000000E+01 0.  0.
</event>
<event>
 4    1  0.4993983E-021  0.5000050E+01  0.7818608E-02  0.2136455E+00
        -11   -1    0    0    0    0  0.00000000000E+00  0.00000000000E+00  0.50000499739E+01  0.50000500000E+01  0.51100000000E-03 0.  1.
         11   -1    0    0    0    0 -0.00000000000E+00 -0.00000000000E+00 -0.50000499739E+01  0.50000500000E+01  0.51100000000E-03 0. -1.
         50    1    1    2    0    0 -0.17342098614E-01 -0.35883857592E-02 -0.13652018287E-01  0.50000500000E+01  0.50000000000E+01 0. -1.
         50    1    1    2    0    0  0.17342098614E-01  0.35883857592E-02  0.13652018287E-01  0.50000500000E+01  0.50000000000E+01 0.  1.
</event>
<event>
 4    1  0.4993983E-021  0.5000050E+01  0.7818608E-02  0.2136455E+00
        -11   -1    0    0    0    0  0.00000000000E+00  0.00000000000E+00  0.50000499739E+01  0.50000500000E+01  0.51100000000E-03 0. -1.
         11   -1    0    0    0    0 -0.00000000000E+00 -0.00000000000E+00 -0.50000499739E+01  0.50000500000E+01  0.51100000000E-03 0.  1.
         50    1    1    2    0    0 -0.41134585662E-02  0.21285519653E-01  0.54780116578E-02  0.50000500000E+01  0.50000000000E+01 0.  0.
         50    1    1    2    0    0  0.41134585662E-02 -0.21285519653E-01 -0.54780116578E-02  0.50000500000E+01  0.50000000000E+01 0.  0.
</event>
<event>
 4    1  0.4993983E-021  0.5000050E+01  0.7818608E-02  0.2136455E+00
        -11   -1    0    0    0    0  0.00000000000E+00  0.00000000000E+00  0.50000499739E+01  0.50000500000E+01  0.51100000000E-03 0.  1.
         11   -1    0    0    0    0 -0.00000000000E+00 -0.00000000000E+00 -0.50000499739E+01  0.50000500000E+01  0.51100000000E-03 0. -1.
         50    1    1    2    0    0  0.14729787579E-01  0.16189227960E-01  0.45765441029E-02  0.50000500000E+01  0.50000000000E+01 0. -1.
         50    1    1    2    0    0 -0.14729787579E-01 -0.16189227960E-01 -0.45765441029E-02  0.50000500000E+01  0.50000000000E+01 0.  0.
</event>
<event>
 4    1  0.4993983E-021  0.5000050E+01  0.7818608E-02  0.2136455E+00
        -11   -1    0    0    0    0  0.00000000000E+00  0.00000000000E+00  0.50000499739E+01  0.50000500000E+01  0.51100000000E-03 0.  1.
         11   -1    0    0    0    0 -0.00000000000E+00 -0.00000000000E+00 -0.50000499739E+01  0.50000500000E+01  0.51100000000E-03 0. -1.
         50    1    1    2    0    0  0.16639651117E-01 -0.13929744415E-01 -0.53932115884E-02  0.50000500000E+01  0.50000000000E+01 0.  1.
         50    1    1    2    0    0 -0.16639651117E-01  0.13929744415E-01  0.53932115884E-02  0.50000500000E+01  0.50000000000E+01 0. -1.
</event>
<event>
 4    1  0.4993983E-021  0.5000050E+01  0.7818608E-02  0.2136455E+00
        -11   -1    0    0    0    0  0.00000000000E+00  0.00000000000E+00  0.50000499739E+01  0.50000500000E+01  0.51100000000E-03 0.  1.
         11   -1    0    0    0    0 -0.00000000000E+00 -0.00000000000E+00 -0.50000499739E+01  0.50000500000E+01  0.51100000000E-03 0. -1.
         50    1    1    2    0    0 -0.85236786177E-02  0.14576216530E-03  0.20671917091E-01  0.50000500000E+01  0.50000000000E+01 0.  0.
         50    1    1    2    0    0  0.85236786177E-02 -0.14576216530E-03 -0.20671917091E-01  0.50000500000E+01  0.50000000000E+01 0. -1.
</event>
<event>
 4    1  0.4993983E-021  0.5000050E+01  0.7818608E-02  0.2136455E+00
        -11   -1    0    0    0    0  0.00000000000E+00  0.00000000000E+00  0.50000499739E+01  0.50000500000E+01  0.51100000000E-03 0. -1.
         11   -1    0    0    0    0 -0.00000000000E+00 -0.00000000000E+00 -0.50000499739E+01  0.50000500000E+01  0.51100000000E-03 0.  1.
         50    1    1    2    0    0 -0.49110061840E-02  0.32077587930E-02  0.21577645881E-01  0.50000500000E+01  0.50000000000E+01 0. -1.
         50    1    1    2    0    0  0.49110061840E-02 -0.32077587930E-02 -0.21577645881E-01  0.50000500000E+01  0.50000000000E+01 0.  0.
</event>
<event>
 4    1  0.4993983E-021  0.5000050E+01  0.7818608E-02  0.2136455E+00
        -11   -1    0    0    0    0  0.00000000000E+00  0.00000000000E+00  0.50000499739E+01  0.50000500000E+01  0.51100000000E-03 0.  1.
         11   -1    0    0    0    0 -0.00000000000E+00 -0.00000000000E+00 -0.50000499739E+01  0.50000500000E+01  0.51100000000E-03 0. -1.
         50    1    1    2    0    0 -0.82026513130E-02 -0.52934708930E-02 -0.20117111556E-01  0.50000500000E+01  0.50000000000E+01 0. -1.
         50    1    1    2    0    0  0.82026513130E-02  0.52934708930E-02  0.20117111556E-01  0.50000500000E+01  0.50000000000E+01 0.  0.
</event>
<event>
 4    1  0.4993983E-021  0.5000050E+01  0.7818608E-02  0.2136455E+00
        -11   -1    0    0    0    0  0.00000000000E+00  0.00000000000E+00  0.50000499739E+01  0.50000500000E+01  0.51100000000E-03 0.  1.
         11   -1    0    0    0    0 -0.00000000000E+00 -0.00000000000E+00 -0.50000499739E+01  0.50000500000E+01  0.51100000000E-03 0. -1.
         50    1    1    2    0    0  0.16174371339E-01  0.64450932931E-02  0.14030430650E-01  0.50000500000E+01  0.50000000000E+01 0.  0.
         50    1    1    2    0    0 -0.16174371339E-01 -0.64450932931E-02 -0.14030430650E-01  0.50000500000E+01  0.50000000000E+01 0.  0.
</event>
<event>
 4    1  0.4993983E-021  0.5000050E+01  0.7818608E-02  0.2136455E+00
        -11   -1    0    0    0    0  0.00000000000E+00  0.00000000000E+00  0.50000499739E+01  0.50000500000E+01  0.51100000000E-03 0. -1.
         11   -1    0    0    0    0 -0.00000000000E+00 -0.00000000000E+00 -0.50000499739E+01  0.50000500000E+01  0.51100000000E-03 0.  1.
         50    1    1    2    0    0 -0.13281499653E-01  0.16294297703E-01  0.76223440828E-02  0.50000500000E+01  0.50000000000E+01 0. -1.
         50    1    1    2    0    0  0.13281499653E-01 -0.16294297703E-01 -0.76223440828E-02  0.50000500000E+01  0.50000000000E+01 0.  1.
</event>
<event>
 4    1  0.4993983E-021  0.5000050E+01  0.7818608E-02  0.2136455E+00
        -11   -1    0    0    0    0  0.00000000000E+00  0.00000000000E+00  0.50000499739E+01  0.50000500000E+01  0.51100000000E-03 0.  1.
         11   -1    0    0    0    0 -0.00000000000E+00 -0.00000000000E+00 -0.50000499739E+01  0.50000500000E+01  0.51100000000E-03 0. -1.
         50    1    1    2    0    0  0.17681725613E-01  0.21297355432E-02  0.13521216879E-01  0.50000500000E+01  0.50000000000E+01 0.  1.
         50    1    1    2    0    0 -0.17681725613E-01 -0.21297355432E-02 -0.13521216879E-01  0.50000500000E+01  0.50000000000E+01 0. -1.
</event>
<event>
 4    1  0.4993983E-021  0.5000050E+01  0.7818608E-02  0.2136455E+00
        -11   -1    0    0    0    0  0.00000000000E+00  0.00000000000E+00  0.50000499739E+01  0.50000500000E+01  0.51100000000E-03 0. -1.
         11   -1    0    0    0    0 -0.00000000000E+00 -0.00000000000E+00 -0.50000499739E+01  0.50000500000E+01  0.51100000000E-03 0.  1.
         50    1    1    2    0    0  0.16777776728E-01  0.14655708570E-01  0.19284486917E-02  0.50000500000E+01  0.50000000000E+01 0. -1.
         50    1    1    2    0    0 -0.16777776728E-01 -0.14655708570E-01 -0.19284486917E-02  0.50000500000E+01  0.50000000000E+01 0.  0.
</event>
<event>
 4    1  0.4993983E-021  0.5000050E+01  0.7818608E-02  0.2136455E+00
        -11   -1    0    0    0    0  0.00000000000E+00  0.00000000000E+00  0.50000499739E+01  0.50000500000E+01  0.51100000000E-03 0. -1.
         11   -1    0    0    0    0 -0.00000000000E+00 -0.00000000000E+00 -0.50000499739E+01  0.50000500000E+01  0.51100000000E-03 0.  1.
         50    1    1    2    0    0  0.75692947796E-02 -0.89410941050E-02 -0.19046393694E-01  0.50000500000E+01  0.50000000000E+01 0.  1.
         50    1    1    2    0    0 -0.75692947796E-02  0.89410941050E-02  0.19046393694E-01  0.50000500000E+01  0.50000000000E+01 0. -1.
</event>
<event>
 4    1  0.4993983E-021  0.5000050E+01  0.7818608E-02  0.2136455E+00
        -11   -1    0    0    0    0  0.00000000000E+00  0.00000000000E+00  0.50000499739E+01  0.50000500000E+01  0.51100000000E-03 0.  1.
         11   -1    0    0    0    0 -0.00000000000E+00 -0.00000000000E+00 -0.50000499739E+01  0.50000500000E+01  0.51100000000E-03 0. -1.
         50    1    1    2    0    0  0.16058755885E-01  0.75807731918E-02 -0.13588625289E-01  0.50000500000E+01  0.50000000000E+01 0.  1.
         50    1    1    2    0    0 -0.16058755885E-01 -0.75807731918E-02  0.13588625289E-01  0.50000500000E+01  0.50000000000E+01 0.  1.
</event>
<event>
 4    1  0.4993983E-021  0.5000050E+01  0.7818608E-02  0.2136455E+00
        -11   -1    0    0    0    0  0.00000000000E+00  0.00000000000E+00  0.50000499739E+01  0.50000500000E+01  0.51100000000E-03 0. -1.
         11   -1    0    0    0    0 -0.00000000000E+00 -0.00000000000E+00 -0.50000499739E+01  0.50000500000E+01  0.51100000000E-03 0.  1.
         50    1    1    2    0    0 -0.10299148722E-01  0.14405376015E-01  0.13653394357E-01  0.50000500000E+01  0.50000000000E+01 0.  0.
         50    1    1    2    0    0  0.10299148722E-01 -0.14405376015E-01 -0.13653394357E-01  0.50000500000E+01  0.50000000000E+01 0.  0.
</event>
<event>
 4    1  0.4993983E-021  0.5000050E+01  0.7818608E-02  0.2136455E+00
        -11   -1    0    0    0    0  0.00000000000E+00  0.00000000000E+00  0.50000499739E+01  0.50000500000E+01  0.51100000000E-03 0.  1.
         11   -1    0    0    0    0 -0.00000000000E+00 -0.00000000000E+00 -0.50000499739E+01  0.50000500000E+01  0.51100000000E-03 0. -1.
         50    1    1    2    0    0  0.10571574363E-01 -0.69365815629E-02  0.18442563588E-01  0.50000500000E+01  0.50000000000E+01 0.  1.
         50    1    1    2    0    0 -0.10571574363E-01  0.69365815629E-02 -0.18442563588E-01  0.50000500000E+01  0.50000000000E+01 0.  0.
</event>
<event>
 4    1  0.4993983E-021  0.5000050E+01  0.7818608E-02  0.2136455E+00
        -11   -1    0    0    0    0  0.00000000000E+00  0.00000000000E+00  0.50000499739E+01  0.50000500000E+01  0.51100000000E-03 0.  1.
         11   -1    0    0    0    0 -0.00000000000E+00 -0.00000000000E+00 -0.50000499739E+01  0.50000500000E+01  0.51100000000E-03 0. -1.
         50    1    1    2    0    0 -0.33847674380E-02  0.20434759791E-01 -0.84241582170E-02  0.50000500000E+01  0.50000000000E+01 0.  1.
         50    1    1    2    0    0  0.33847674380E-02 -0.20434759791E-01  0.84241582170E-02  0.50000500000E+01  0.50000000000E+01 0.  0.
</event>
<event>
 4    1  0.4993983E-021  0.5000050E+01  0.7818608E-02  0.2136455E+00
        -11   -1    0    0    0    0  0.00000000000E+00  0.00000000000E+00  0.50000499739E+01  0.50000500000E+01  0.51100000000E-03 0. -1.
         11   -1    0    0    0    0 -0.00000000000E+00 -0.00000000000E+00 -0.50000499739E+01  0.50000500000E+01  0.51100000000E-03 0.  1.
         50    1    1    2    0    0  0.81616703923E-02 -0.19748792505E-01 -0.65859571048E-02  0.50000500000E+01  0.50000000000E+01 0.  1.
         50    1    1    2    0    0 -0.81616703923E-02  0.19748792505E-01  0.65859571048E-02  0.50000500000E+01  0.50000000000E+01 0.  0.
</event>
<event>
 4    1  0.4993983E-021  0.5000050E+01  0.7818608E-02  0.2136455E+00
        -11   -1    0    0    0    0  0.00000000000E+00  0.00000000000E+00  0.50000499739E+01  0.50000500000E+01  0.51100000000E-03 0.  1.
         11   -1    0    0    0    0 -0.00000000000E+00 -0.00000000000E+00 -0.50000499739E+01  0.50000500000E+01  0.51100000000E-03 0. -1.
         50    1    1    2    0    0  0.19937487391E-01 -0.91956087597E-02 -0.42355490870E-02  0.50000500000E+01  0.50000000000E+01 0. -1.
         50    1    1    2    0    0 -0.19937487391E-01  0.91956087597E-02  0.42355490870E-02  0.50000500000E+01  0.50000000000E+01 0.  1.
</event>
<event>
 4    1  0.4993983E-021  0.5000050E+01  0.7818608E-02  0.2136455E+00
        -11   -1    0    0    0    0  0.00000000000E+00  0.00000000000E+00  0.50000499739E+01  0.50000500000E+01  0.51100000000E-03 0. -1.
         11   -1    0    0    0    0 -0.00000000000E+00 -0.00000000000E+00 -0.50000499739E+01  0.50000500000E+01  0.51100000000E-03 0.  1.
         50    1    1    2    0    0  0.74642218526E-02 -0.19520688300E-01  0.79517683844E-02  0.50000500000E+01  0.50000000000E+01 0.  0.
         50    1    1    2    0    0 -0.74642218526E-02  0.19520688300E-01 -0.79517683844E-02  0.50000500000E+01  0.50000000000E+01 0. -1.
</event>
<event>
 4    1  0.4993983E-021  0.5000050E+01  0.7818608E-02  0.2136455E+00
        -11   -1    0    0    0    0  0.00000000000E+00  0.00000000000E+00  0.50000499739E+01  0.50000500000E+01  0.51100000000E-03 0. -1.
         11   -1    0    0    0    0 -0.00000000000E+00 -0.00000000000E+00 -0.50000499739E+01  0.50000500000E+01  0.51100000000E-03 0.  1.
         50    1    1    2    0    0  0.11479039606E-01 -0.13675233598E-01  0.13461877126E-01  0.50000500000E+01  0.50000000000E+01 0. -1.
         50    1    1    2    0    0 -0.11479039606E-01  0.13675233598E-01 -0.13461877126E-01  0.50000500000E+01  0.50000000000E+01 0. -1.
</event>
<event>
 4    1  0.4993983E-021  0.5000050E+01  0.7818608E-02  0.2136455E+00
        -11   -1    0    0    0    0  0.00000000000E+00  0.00000000000E+00  0.50000499739E+01  0.50000500000E+01  0.51100000000E-03 0. -1.
         11   -1    0    0    0    0 -0.00000000000E+00 -0.00000000000E+00 -0.50000499739E+01  0.50000500000E+01  0.51100000000E-03 0.  1.
         50    1    1    2    0    0  0.14944594029E-01 -0.11144672296E-01  0.12347383881E-01  0.50000500000E+01  0.50000000000E+01 0. -1.
         50    1    1    2    0    0 -0.14944594029E-01  0.11144672296E-01 -0.12347383881E-01  0.50000500000E+01  0.50000000000E+01 0.  1.
</event>
<event>
 4    1  0.4993983E-021  0.5000050E+01  0.7818608E-02  0.2136455E+00
        -11   -1    0    0    0    0  0.00000000000E+00  0.00000000000E+00  0.50000499739E+01  0.50000500000E+01  0.51100000000E-03 0.  1.
         11   -1    0    0    0    0 -0.00000000000E+00 -0.00000000000E+00 -0.50000499739E+01  0.50000500000E+01  0.51100000000E-03 0. -1.
         50    1    1    2    0    0  0.36667024269E-02 -0.38638488940E-02 -0.21717008658E-01  0.50000500000E+01  0.50000000000E+01 0. -1.
         50    1    1    2    0    0 -0.36667024269E-02  0.38638488940E-02  0.21717008658E-01  0.50000500000E+01  0.50000000000E+01 0.  0.
</event>
<event>
 4    1  0.4993983E-021  0.5000050E+01  0.7818608E-02  0.2136455E+00
        -11   -1    0    0    0    0  0.00000000000E+00  0.00000000000E+00  0.50000499739E+01  0.50000500000E+01  0.51100000000E-03 0.  1.
         11   -1    0    0    0    0 -0.00000000000E+00 -0.00000000000E+00 -0.50000499739E+01  0.50000500000E+01  0.51100000000E-03 0. -1.
         50    1    1    2    0    0  0.10871438574E-01 -0.19417510078E-01  0.21850916884E-02  0.50000500000E+01  0.50000000000E+01 0.  1.
         50    1    1    2    0    0 -0.10871438574E-01  0.19417510078E-01 -0.21850916884E-02  0.50000500000E+01  0.50000000000E+01 0. -1.
</event>
<event>
 4    1  0.4993983E-021  0.5000050E+01  0.7818608E-02  0.2136455E+00
        -11   -1    0    0    0    0  0.00000000000E+00  0.00000000000E+00  0.50000499739E+01  0.50000500000E+01  0.51100000000E-03 0. -1.
         11   -1    0    0    0    0 -0.00000000000E+00 -0.00000000000E+00 -0.50000499739E+01  0.50000500000E+01  0.51100000000E-03 0.  1.
         50    1    1    2    0    0  0.15751104486E-01 -0.11423553649E-01 -0.11018513035E-01  0.50000500000E+01  0.50000000000E+01 0.  1.
         50    1    1    2    0    0 -0.15751104486E-01  0.11423553649E-01  0.11018513035E-01  0.50000500000E+01  0.50000000000E+01 0. -1.
</event>
<event>
 4    1  0.4993983E-021  0.5000050E+01  0.7818608E-02  0.2136455E+00
        -11   -1    0    0    0    0  0.00000000000E+00  0.00000000000E+00  0.50000499739E+01  0.50000500000E+01  0.51100000000E-03 0.  1.
         11   -1    0    0    0    0 -0.00000000000E+00 -0.00000000000E+00 -0.50000499739E+01  0.50000500000E+01  0.51100000000E-03 0. -1.
         50    1    1    2    0    0 -0.19061095508E-01 -0.71487072561E-02 -0.92505741768E-02  0.50000500000E+01  0.50000000000E+01 0. -1.
         50    1    1    2    0    0  0.19061095508E-01  0.71487072561E-02  0.92505741768E-02  0.50000500000E+01  0.50000000000E+01 0.  1.
</event>
<event>
 4    1  0.4993983E-021  0.5000050E+01  0.7818608E-02  0.2136455E+00
        -11   -1    0    0    0    0  0.00000000000E+00  0.00000000000E+00  0.50000499739E+01  0.50000500000E+01  0.51100000000E-03 0.  1.
         11   -1    0    0    0    0 -0.00000000000E+00 -0.00000000000E+00 -0.50000499739E+01  0.50000500000E+01  0.51100000000E-03 0. -1.
         50    1    1    2    0    0 -0.21833127973E-01 -0.14243048154E-02 -0.46139331063E-02  0.50000500000E+01  0.50000000000E+01 0. -1.
         50    1    1    2    0    0  0.21833127973E-01  0.14243048154E-02  0.46139331063E-02  0.50000500000E+01  0.50000000000E+01 0.  1.
</event>
<event>
 4    1  0.4993983E-021  0.5000050E+01  0.7818608E-02  0.2136455E+00
        -11   -1    0    0    0    0  0.00000000000E+00  0.00000000000E+00  0.50000499739E+01  0.50000500000E+01  0.51100000000E-03 0.  1.
         11   -1    0    0    0    0 -0.00000000000E+00 -0.00000000000E+00 -0.50000499739E+01  0.50000500000E+01  0.51100000000E-03 0. -1.
         50    1    1    2    0    0 -0.19123263722E-01  0.37451769138E-02 -0.10967084138E-01  0.50000500000E+01  0.50000000000E+01 0. -1.
         50    1    1    2    0    0  0.19123263722E-01 -0.37451769138E-02  0.10967084138E-01  0.50000500000E+01  0.50000000000E+01 0.  1.
</event>
<event>
 4    1  0.4993983E-021  0.5000050E+01  0.7818608E-02  0.2136455E+00
        -11   -1    0    0    0    0  0.00000000000E+00  0.00000000000E+00  0.50000499739E+01  0.50000500000E+01  0.51100000000E-03 0. -1.
         11   -1    0    0    0    0 -0.00000000000E+00 -0.00000000000E+00 -0.50000499739E+01  0.50000500000E+01  0.51100000000E-03 0.  1.
         50    1    1    2    0    0 -0.12612947726E-01 -0.14365727524E-01  0.11599220766E-01  0.50000500000E+01  0.50000000000E+01 0. -1.
         50    1    1    2    0    0  0.12612947726E-01  0.14365727524E-01 -0.11599220766E-01  0.50000500000E+01  0.50000000000E+01 0. -1.
</event>
<event>
 4    1  0.4993983E-021  0.5000050E+01  0.7818608E-02  0.2136455E+00
        -11   -1    0    0    0    0  0.00000000000E+00  0.00000000000E+00  0.50000499739E+01  0.50000500000E+01  0.51100000000E-03 0.  1.
         11   -1    0    0    0    0 -0.00000000000E+00 -0.00000000000E+00 -0.50000499739E+01  0.50000500000E+01  0.51100000000E-03 0. -1.
         50    1    1    2    0    0 -0.56712930718E-02  0.20674970931E-01  0.63548809489E-02  0.50000500000E+01  0.50000000000E+01 0.  1.
         50    1    1    2    0    0  0.56712930718E-02 -0.20674970931E-01 -0.63548809489E-02  0.50000500000E+01  0.50000000000E+01 0. -1.
</event>
<event>
 4    1  0.4993983E-021  0.5000050E+01  0.7818608E-02  0.2136455E+00
        -11   -1    0    0    0    0  0.00000000000E+00  0.00000000000E+00  0.50000499739E+01  0.50000500000E+01  0.51100000000E-03 0.  1.
         11   -1    0    0    0    0 -0.00000000000E+00 -0.00000000000E+00 -0.50000499739E+01  0.50000500000E+01  0.51100000000E-03 0. -1.
         50    1    1    2    0    0  0.79532632002E-02  0.15183651888E-01 -0.14359833558E-01  0.50000500000E+01  0.50000000000E+01 0.  0.
         50    1    1    2    0    0 -0.79532632002E-02 -0.15183651888E-01  0.14359833558E-01  0.50000500000E+01  0.50000000000E+01 0.  0.
</event>
<event>
 4    1  0.4993983E-021  0.5000050E+01  0.7818608E-02  0.2136455E+00
        -11   -1    0    0    0    0  0.00000000000E+00  0.00000000000E+00  0.50000499739E+01  0.50000500000E+01  0.51100000000E-03 0. -1.
         11   -1    0    0    0    0 -0.00000000000E+00 -0.00000000000E+00 -0.50000499739E+01  0.50000500000E+01  0.51100000000E-03 0.  1.
         50    1    1    2    0    0  0.43954214298E-02  0.74530502072E-02  0.20618797566E-01  0.50000500000E+01  0.50000000000E+01 0.  0.
         50    1    1    2    0    0 -0.43954214298E-02 -0.74530502072E-02 -0.20618797566E-01  0.50000500000E+01  0.50000000000E+01 0.  1.
</event>
<event>
 4    1  0.4993983E-021  0.5000050E+01  0.7818608E-02  0.2136455E+00
        -11   -1    0    0    0    0  0.00000000000E+00  0.00000000000E+00  0.50000499739E+01  0.50000500000E+01  0.51100000000E-03 0.  1.
         11   -1    0    0    0    0 -0.00000000000E+00 -0.00000000000E+00 -0.50000499739E+01  0.50000500000E+01  0.51100000000E-03 0. -1.
         50    1    1    2    0    0 -0.18190294821E-01  0.26750311071E-02 -0.12726346016E-01  0.50000500000E+01  0.50000000000E+01 0.  0.
         50    1    1    2    0    0  0.18190294821E-01 -0.26750311071E-02  0.12726346016E-01  0.50000500000E+01  0.50000000000E+01 0. -1.
</event>
<event>
 4    1  0.4993983E-021  0.5000050E+01  0.7818608E-02  0.2136455E+00
        -11   -1    0    0    0    0  0.00000000000E+00  0.00000000000E+00  0.50000499739E+01  0.50000500000E+01  0.51100000000E-03 0.  1.
         11   -1    0    0    0    0 -0.00000000000E+00 -0.00000000000E+00 -0.50000499739E+01  0.50000500000E+01  0.51100000000E-03 0. -1.
         50    1    1    2    0    0  0.20291820371E-01 -0.80835906127E-02  0.47854037284E-02  0.50000500000E+01  0.50000000000E+01 0.  0.
         50    1    1    2    0    0 -0.20291820371E-01  0.80835906127E-02 -0.47854037284E-02  0.50000500000E+01  0.50000000000E+01 0. -1.
</event>
<event>
 4    1  0.4993983E-021  0.5000050E+01  0.7818608E-02  0.2136455E+00
        -11   -1    0    0    0    0  0.00000000000E+00  0.00000000000E+00  0.50000499739E+01  0.50000500000E+01  0.51100000000E-03 0.  1.
         11   -1    0    0    0    0 -0.00000000000E+00 -0.00000000000E+00 -0.50000499739E+01  0.50000500000E+01  0.51100000000E-03 0. -1.
         50    1    1    2    0    0 -0.17906991571E-01 -0.13374526299E-01  0.68132163002E-03  0.50000500000E+01  0.50000000000E+01 0. -1.
         50    1    1    2    0    0  0.17906991571E-01  0.13374526299E-01 -0.68132163002E-03  0.50000500000E+01  0.50000000000E+01 0.  1.
</event>
<event>
 4    1  0.4993983E-021  0.5000050E+01  0.7818608E-02  0.2136455E+00
        -11   -1    0    0    0    0  0.00000000000E+00  0.00000000000E+00  0.50000499739E+01  0.50000500000E+01  0.51100000000E-03 0.  1.
         11   -1    0    0    0    0 -0.00000000000E+00 -0.00000000000E+00 -0.50000499739E+01  0.50000500000E+01  0.51100000000E-03 0. -1.
         50    1    1    2    0    0  0.72820967060E-02  0.20425079985E-01  0.54579918626E-02  0.50000500000E+01  0.50000000000E+01 0.  1.
         50    1    1    2    0    0 -0.72820967060E-02 -0.20425079985E-01 -0.54579918626E-02  0.50000500000E+01  0.50000000000E+01 0. -1.
</event>
<event>
 4    1  0.4993983E-021  0.5000050E+01  0.7818608E-02  0.2136455E+00
        -11   -1    0    0    0    0  0.00000000000E+00  0.00000000000E+00  0.50000499739E+01  0.50000500000E+01  0.51100000000E-03 0.  1.
         11   -1    0    0    0    0 -0.00000000000E+00 -0.00000000000E+00 -0.50000499739E+01  0.50000500000E+01  0.51100000000E-03 0. -1.
         50    1    1    2    0    0  0.61331456536E-02 -0.18598945598E-01  0.10791952883E-01  0.50000500000E+01  0.50000000000E+01 0.  1.
         50    1    1    2    0    0 -0.61331456536E-02  0.18598945598E-01 -0.10791952883E-01  0.50000500000E+01  0.50000000000E+01 0.  1.
</event>
<event>
 4    1  0.4993983E-021  0.5000050E+01  0.7818608E-02  0.2136455E+00
        -11   -1    0    0    0    0  0.00000000000E+00  0.00000000000E+00  0.50000499739E+01  0.50000500000E+01  0.51100000000E-03 0. -1.
         11   -1    0    0    0    0 -0.00000000000E+00 -0.00000000000E+00 -0.50000499739E+01  0.50000500000E+01  0.51100000000E-03 0.  1.
         50    1    1    2    0    0  0.17606303764E-01 -0.43486403029E-02 -0.13080898107E-01  0.50000500000E+01  0.50000000000E+01 0.  0.
         50    1    1    2    0    0 -0.17606303764E-01  0.43486403029E-02  0.13080898107E-01  0.50000500000E+01  0.50000000000E+01 0.  0.
</event>
<event>
 4    1  0.4993983E-021  0.5000050E+01  0.7818608E-02  0.2136455E+00
        -11   -1    0    0    0    0  0.00000000000E+00  0.00000000000E+00  0.50000499739E+01  0.50000500000E+01  0.51100000000E-03 0.  1.
         11   -1    0    0    0    0 -0.00000000000E+00 -0.00000000000E+00 -0.50000499739E+01  0.50000500000E+01  0.51100000000E-03 0. -1.
         50    1    1    2    0    0 -0.11577495587E-01  0.17580460674E-01 -0.75426453203E-02  0.50000500000E+01  0.50000000000E+01 0. -1.
         50    1    1    2    0    0  0.11577495587E-01 -0.17580460674E-01  0.75426453203E-02  0.50000500000E+01  0.50000000000E+01 0.  1.
</event>
<event>
 4    1  0.4993983E-021  0.5000050E+01  0.7818608E-02  0.2136455E+00
        -11   -1    0    0    0    0  0.00000000000E+00  0.00000000000E+00  0.50000499739E+01  0.50000500000E+01  0.51100000000E-03 0. -1.
         11   -1    0    0    0    0 -0.00000000000E+00 -0.00000000000E+00 -0.50000499739E+01  0.50000500000E+01  0.51100000000E-03 0.  1.
         50    1    1    2    0    0  0.12194813832E-01 -0.55527948435E-02  0.17901270486E-01  0.50000500000E+01  0.50000000000E+01 0.  0.
         50    1    1    2    0    0 -0.12194813832E-01  0.55527948435E-02 -0.17901270486E-01  0.50000500000E+01  0.50000000000E+01 0.  1.
</event>
<event>
 4    1  0.4993983E-021  0.5000050E+01  0.7818608E-02  0.2136455E+00
        -11   -1    0    0    0    0  0.00000000000E+00  0.00000000000E+00  0.50000499739E+01  0.50000500000E+01  0.51100000000E-03 0. -1.
         11   -1    0    0    0    0 -0.00000000000E+00 -0.00000000000E+00 -0.50000499739E+01  0.50000500000E+01  0.51100000000E-03 0.  1.
         50    1    1    2    0    0  0.49958366332E-02  0.20721086175E-01 -0.67587501858E-02  0.50000500000E+01  0.50000000000E+01 0.  1.
         50    1    1    2    0    0 -0.49958366332E-02 -0.20721086175E-01  0.67587501858E-02  0.50000500000E+01  0.50000000000E+01 0. -1.
</event>
<event>
 4    1  0.4993983E-021  0.5000050E+01  0.7818608E-02  0.2136455E+00
        -11   -1    0    0    0    0  0.00000000000E+00  0.00000000000E+00  0.50000499739E+01  0.50000500000E+01  0.51100000000E-03 0. -1.
         11   -1    0    0    0    0 -0.00000000000E+00 -0.00000000000E+00 -0.50000499739E+01  0.50000500000E+01  0.51100000000E-03 0.  1.
         50    1    1    2    0    0 -0.15860534113E-01 -0.13813735070E-01  0.75912239515E-02  0.50000500000E+01  0.50000000000E+01 0. -1.
         50    1    1    2    0    0  0.15860534113E-01  0.13813735070E-01 -0.75912239515E-02  0.50000500000E+01  0.50000000000E+01 0.  1.
</event>
<event>
 4    1  0.4993983E-021  0.5000050E+01  0.7818608E-02  0.2136455E+00
        -11   -1    0    0    0    0  0.00000000000E+00  0.00000000000E+00  0.50000499739E+01  0.50000500000E+01  0.51100000000E-03 0.  1.
         11   -1    0    0    0    0 -0.00000000000E+00 -0.00000000000E+00 -0.50000499739E+01  0.50000500000E+01  0.51100000000E-03 0. -1.
         50    1    1    2    0    0 -0.15841945353E-02  0.77637476730E-02 -0.20909735764E-01  0.50000500000E+01  0.50000000000E+01 0. -1.
         50    1    1    2    0    0  0.15841945353E-02 -0.77637476730E-02  0.20909735764E-01  0.50000500000E+01  0.50000000000E+01 0.  0.
</event>
<event>
 4    1  0.4993983E-021  0.5000050E+01  0.7818608E-02  0.2136455E+00
        -11   -1    0    0    0    0  0.00000000000E+00  0.00000000000E+00  0.50000499739E+01  0.50000500000E+01  0.51100000000E-03 0. -1.
         11   -1    0    0    0    0 -0.00000000000E+00 -0.00000000000E+00 -0.50000499739E+01  0.50000500000E+01  0.51100000000E-03 0.  1.
         50    1    1    2    0    0 -0.87822213527E-02 -0.13512854387E-01  0.15500898503E-01  0.50000500000E+01  0.50000000000E+01 0.  0.
         50    1    1    2    0    0  0.87822213527E-02  0.13512854387E-01 -0.15500898503E-01  0.50000500000E+01  0.50000000000E+01 0.  0.
</event>
<event>
 4    1  0.4993983E-021  0.5000050E+01  0.7818608E-02  0.2136455E+00
        -11   -1    0    0    0    0  0.00000000000E+00  0.00000000000E+00  0.50000499739E+01  0.50000500000E+01  0.51100000000E-03 0. -1.
         11   -1    0    0    0    0 -0.00000000000E+00 -0.00000000000E+00 -0.50000499739E+01  0.50000500000E+01  0.51100000000E-03 0.  1.
         50    1    1    2    0    0  0.13914345833E-01 -0.98873318323E-02 -0.14444173541E-01  0.50000500000E+01  0.50000000000E+01 0.  1.
         50    1    1    2    0    0 -0.13914345833E-01  0.98873318323E-02  0.14444173541E-01  0.50000500000E+01  0.50000000000E+01 0. -1.
</event>
<event>
 4    1  0.4993983E-021  0.5000050E+01  0.7818608E-02  0.2136455E+00
        -11   -1    0    0    0    0  0.00000000000E+00  0.00000000000E+00  0.50000499739E+01  0.50000500000E+01  0.51100000000E-03 0.  1.
         11   -1    0    0    0    0 -0.00000000000E+00 -0.00000000000E+00 -0.50000499739E+01  0.50000500000E+01  0.51100000000E-03 0. -1.
         50    1    1    2    0    0  0.41784925957E-02 -0.75835121112E-04  0.21966723667E-01  0.50000500000E+01  0.50000000000E+01 0.  0.
         50    1    1    2    0    0 -0.41784925957E-02  0.75835121112E-04 -0.21966723667E-01  0.50000500000E+01  0.50000000000E+01 0. -1.
</event>
<event>
 4    1  0.4993983E-021  0.5000050E+01  0.7818608E-02  0.2136455E+00
        -11   -1    0    0    0    0  0.00000000000E+00  0.00000000000E+00  0.50000499739E+01  0.50000500000E+01  0.51100000000E-03 0.  1.
         11   -1    0    0    0    0 -0.00000000000E+00 -0.00000000000E+00 -0.50000499739E+01  0.50000500000E+01  0.51100000000E-03 0. -1.
         50    1    1    2    0    0 -0.17489021211E-02  0.87258080119E-02 -0.20513510570E-01  0.50000500000E+01  0.50000000000E+01 0. -1.
         50    1    1    2    0    0  0.17489021211E-02 -0.87258080119E-02  0.20513510570E-01  0.50000500000E+01  0.50000000000E+01 0.  1.
</event>
<event>
 4    1  0.4993983E-021  0.5000050E+01  0.7818608E-02  0.2136455E+00
        -11   -1    0    0    0    0  0.00000000000E+00  0.00000000000E+00  0.50000499739E+01  0.50000500000E+01  0.51100000000E-03 0. -1.
         11   -1    0    0    0    0 -0.00000000000E+00 -0.00000000000E+00 -0.50000499739E+01  0.50000500000E+01  0.51100000000E-03 0.  1.
         50    1    1    2    0    0 -0.68340388260E-02  0.20868215557E-01  0.42208995243E-02  0.50000500000E+01  0.50000000000E+01 0. -1.
         50    1    1    2    0    0  0.68340388260E-02 -0.20868215557E-01 -0.42208995243E-02  0.50000500000E+01  0.50000000000E+01 0.  1.
</event>
<event>
 4    1  0.4993983E-021  0.5000050E+01  0.7818608E-02  0.2136455E+00
        -11   -1    0    0    0    0  0.00000000000E+00  0.00000000000E+00  0.50000499739E+01  0.50000500000E+01  0.51100000000E-03 0.  1.
         11   -1    0    0    0    0 -0.00000000000E+00 -0.00000000000E+00 -0.50000499739E+01  0.50000500000E+01  0.51100000000E-03 0. -1.
         50    1    1    2    0    0  0.21131068606E-01  0.33156305946E-03 -0.73055119960E-02  0.50000500000E+01  0.50000000000E+01 0.  1.
         50    1    1    2    0    0 -0.21131068606E-01 -0.33156305946E-03  0.73055119960E-02  0.50000500000E+01  0.50000000000E+01 0.  0.
</event>
<event>
 4    1  0.4993983E-021  0.5000050E+01  0.7818608E-02  0.2136455E+00
        -11   -1    0    0    0    0  0.00000000000E+00  0.00000000000E+00  0.50000499739E+01  0.50000500000E+01  0.51100000000E-03 0.  1.
         11   -1    0    0    0    0 -0.00000000000E+00 -0.00000000000E+00 -0.50000499739E+01  0.50000500000E+01  0.51100000000E-03 0. -1.
         50    1    1    2    0    0 -0.20088812440E-01 -0.95889561097E-02 -0.21199140271E-02  0.50000500000E+01  0.50000000000E+01 0.  0.
         50    1    1    2    0    0  0.20088812440E-01  0.95889561097E-02  0.21199140271E-02  0.50000500000E+01  0.50000000000E+01 0.  0.
</event>
<event>
 4    1  0.4993983E-021  0.5000050E+01  0.7818608E-02  0.2136455E+00
        -11   -1    0    0    0    0  0.00000000000E+00  0.00000000000E+00  0.50000499739E+01  0.50000500000E+01  0.51100000000E-03 0.  1.
         11   -1    0    0    0    0 -0.00000000000E+00 -0.00000000000E+00 -0.50000499739E+01  0.50000500000E+01  0.51100000000E-03 0. -1.
         50    1    1    2    0    0  0.33033526268E-03 -0.48497764637E-02  0.21825971842E-01  0.50000500000E+01  0.50000000000E+01 0.  0.
         50    1    1    2    0    0 -0.33033526268E-03  0.48497764637E-02 -0.21825971842E-01  0.50000500000E+01  0.50000000000E+01 0. -1.
</event>
<event>
 4    1  0.4993983E-021  0.5000050E+01  0.7818608E-02  0.2136455E+00
        -11   -1    0    0    0    0  0.00000000000E+00  0.00000000000E+00  0.50000499739E+01  0.50000500000E+01  0.51100000000E-03 0.  1.
         11   -1    0    0    0    0 -0.00000000000E+00 -0.00000000000E+00 -0.50000499739E+01  0.50000500000E+01  0.51100000000E-03 0. -1.
         50    1    1    2    0    0 -0.15614305049E-01 -0.44440776342E-02  0.15376805644E-01  0.50000500000E+01  0.50000000000E+01 0.  1.
         50    1    1    2    0    0  0.15614305049E-01  0.44440776342E-02 -0.15376805644E-01  0.50000500000E+01  0.50000000000E+01 0. -1.
</event>
<event>
 4    1  0.4993983E-021  0.5000050E+01  0.7818608E-02  0.2136455E+00
        -11   -1    0    0    0    0  0.00000000000E+00  0.00000000000E+00  0.50000499739E+01  0.50000500000E+01  0.51100000000E-03 0. -1.
         11   -1    0    0    0    0 -0.00000000000E+00 -0.00000000000E+00 -0.50000499739E+01  0.50000500000E+01  0.51100000000E-03 0.  1.
         50    1    1    2    0    0 -0.15504854407E-01  0.16051073598E-01  0.14017939140E-02  0.50000500000E+01  0.50000000000E+01 0.  1.
         50    1    1    2    0    0  0.15504854407E-01 -0.16051073598E-01 -0.14017939140E-02  0.50000500000E+01  0.50000000000E+01 0. -1.
</event>
<event>
 4    1  0.4993983E-021  0.5000050E+01  0.7818608E-02  0.2136455E+00
        -11   -1    0    0    0    0  0.00000000000E+00  0.00000000000E+00  0.50000499739E+01  0.50000500000E+01  0.51100000000E-03 0.  1.
         11   -1    0    0    0    0 -0.00000000000E+00 -0.00000000000E+00 -0.50000499739E+01  0.50000500000E+01  0.51100000000E-03 0. -1.
         50    1    1    2    0    0 -0.16045209913E-01  0.56398598962E-03  0.15563921699E-01  0.50000500000E+01  0.50000000000E+01 0.  1.
         50    1    1    2    0    0  0.16045209913E-01 -0.56398598962E-03 -0.15563921699E-01  0.50000500000E+01  0.50000000000E+01 0. -1.
</event>
<event>
 4    1  0.4993983E-021  0.5000050E+01  0.7818608E-02  0.2136455E+00
        -11   -1    0    0    0    0  0.00000000000E+00  0.00000000000E+00  0.50000499739E+01  0.50000500000E+01  0.51100000000E-03 0. -1.
         11   -1    0    0    0    0 -0.00000000000E+00 -0.00000000000E+00 -0.50000499739E+01  0.50000500000E+01  0.51100000000E-03 0.  1.
         50    1    1    2    0    0  0.28985232945E-02  0.96835150768E-04  0.22171866986E-01  0.50000500000E+01  0.50000000000E+01 0.  0.
         50    1    1    2    0    0 -0.28985232945E-02 -0.96835150768E-04 -0.22171866986E-01  0.50000500000E+01  0.50000000000E+01 0.  1.
</event>
<event>
 4    1  0.4993983E-021  0.5000050E+01  0.7818608E-02  0.2136455E+00
        -11   -1    0    0    0    0  0.00000000000E+00  0.00000000000E+00  0.50000499739E+01  0.50000500000E+01  0.51100000000E-03 0. -1.
         11   -1    0    0    0    0 -0.00000000000E+00 -0.00000000000E+00 -0.50000499739E+01  0.50000500000E+01  0.51100000000E-03 0.  1.
         50    1    1    2    0    0 -0.21431960112E-01  0.63589169103E-02 -0.48760791460E-03  0.50000500000E+01  0.50000000000E+01 0.  0.
         50    1    1    2    0    0  0.21431960112E-01 -0.63589169103E-02  0.48760791460E-03  0.50000500000E+01  0.50000000000E+01 0.  1.
</event>
<event>
 4    1  0.4993983E-021  0.5000050E+01  0.7818608E-02  0.2136455E+00
        -11   -1    0    0    0    0  0.00000000000E+00  0.00000000000E+00  0.50000499739E+01  0.50000500000E+01  0.51100000000E-03 0. -1.
         11   -1    0    0    0    0 -0.00000000000E+00 -0.00000000000E+00 -0.50000499739E+01  0.50000500000E+01  0.51100000000E-03 0.  1.
         50    1    1    2    0    0 -0.41548428246E-02 -0.21338400732E-01 -0.52356886160E-02  0.50000500000E+01  0.50000000000E+01 0.  1.
         50    1    1    2    0    0  0.41548428246E-02  0.21338400732E-01  0.52356886160E-02  0.50000500000E+01  0.50000000000E+01 0. -1.
</event>
<event>
 4    1  0.4993983E-021  0.5000050E+01  0.7818608E-02  0.2136455E+00
        -11   -1    0    0    0    0  0.00000000000E+00  0.00000000000E+00  0.50000499739E+01  0.50000500000E+01  0.51100000000E-03 0.  1.
         11   -1    0    0    0    0 -0.00000000000E+00 -0.00000000000E+00 -0.50000499739E+01  0.50000500000E+01  0.51100000000E-03 0. -1.
         50    1    1    2    0    0  0.15503963244E-01 -0.34844854935E-02 -0.15731750843E-01  0.50000500000E+01  0.50000000000E+01 0. -1.
         50    1    1    2    0    0 -0.15503963244E-01  0.34844854935E-02  0.15731750843E-01  0.50000500000E+01  0.50000000000E+01 0.  1.
</event>
<event>
 4    1  0.4993983E-021  0.5000050E+01  0.7818608E-02  0.2136455E+00
        -11   -1    0    0    0    0  0.00000000000E+00  0.00000000000E+00  0.50000499739E+01  0.50000500000E+01  0.51100000000E-03 0.  1.
         11   -1    0    0    0    0 -0.00000000000E+00 -0.00000000000E+00 -0.50000499739E+01  0.50000500000E+01  0.51100000000E-03 0. -1.
         50    1    1    2    0    0 -0.64304355853E-02  0.15810236624E-01  0.14446051920E-01  0.50000500000E+01  0.50000000000E+01 0.  0.
         50    1    1    2    0    0  0.64304355853E-02 -0.15810236624E-01 -0.14446051920E-01  0.50000500000E+01  0.50000000000E+01 0.  0.
</event>
<event>
 4    1  0.4993983E-021  0.5000050E+01  0.7818608E-02  0.2136455E+00
        -11   -1    0    0    0    0  0.00000000000E+00  0.00000000000E+00  0.50000499739E+01  0.50000500000E+01  0.51100000000E-03 0. -1.
         11   -1    0    0    0    0 -0.00000000000E+00 -0.00000000000E+00 -0.50000499739E+01  0.50000500000E+01  0.51100000000E-03 0.  1.
         50    1    1    2    0    0 -0.25754855913E-03 -0.17553698433E-01  0.13849326340E-01  0.50000500000E+01  0.50000000000E+01 0. -1.
         50    1    1    2    0    0  0.25754855913E-03  0.17553698433E-01 -0.13849326340E-01  0.50000500000E+01  0.50000000000E+01 0.  1.
</event>
<event>
 4    1  0.4993983E-021  0.5000050E+01  0.7818608E-02  0.2136455E+00
        -11   -1    0    0    0    0  0.00000000000E+00  0.00000000000E+00  0.50000499739E+01  0.50000500000E+01  0.51100000000E-03 0.  1.
         11   -1    0    0    0    0 -0.00000000000E+00 -0.00000000000E+00 -0.50000499739E+01  0.50000500000E+01  0.51100000000E-03 0. -1.
         50    1    1    2    0    0 -0.10396288624E-01  0.10976328684E-01 -0.16475432968E-01  0.50000500000E+01  0.50000000000E+01 0. -1.
         50    1    1    2    0    0  0.10396288624E-01 -0.10976328684E-01  0.16475432968E-01  0.50000500000E+01  0.50000000000E+01 0. -1.
</event>
<event>
 4    1  0.4993983E-021  0.5000050E+01  0.7818608E-02  0.2136455E+00
        -11   -1    0    0    0    0  0.00000000000E+00  0.00000000000E+00  0.50000499739E+01  0.50000500000E+01  0.51100000000E-03 0. -1.
         11   -1    0    0    0    0 -0.00000000000E+00 -0.00000000000E+00 -0.50000499739E+01  0.50000500000E+01  0.51100000000E-03 0.  1.
         50    1    1    2    0    0  0.96839114394E-02  0.18958230186E-01 -0.68417737058E-02  0.50000500000E+01  0.50000000000E+01 0.  1.
         50    1    1    2    0    0 -0.96839114394E-02 -0.18958230186E-01  0.68417737058E-02  0.50000500000E+01  0.50000000000E+01 0.  0.
</event>
<event>
 4    1  0.4993983E-021  0.5000050E+01  0.7818608E-02  0.2136455E+00
        -11   -1    0    0    0    0  0.00000000000E+00  0.00000000000E+00  0.50000499739E+01  0.50000500000E+01  0.51100000000E-03 0. -1.
         11   -1    0    0    0    0 -0.00000000000E+00 -0.00000000000E+00 -0.50000499739E+01  0.50000500000E+01  0.51100000000E-03 0.  1.
         50    1    1    2    0    0  0.43411310974E-02  0.26535431421E-02  0.21774200091E-01  0.50000500000E+01  0.50000000000E+01 0.  0.
         50    1    1    2    0    0 -0.43411310974E-02 -0.26535431421E-02 -0.21774200091E-01  0.50000500000E+01  0.50000000000E+01 0.  0.
</event>
<event>
 4    1  0.4993983E-021  0.5000050E+01  0.7818608E-02  0.2136455E+00
        -11   -1    0    0    0    0  0.00000000000E+00  0.00000000000E+00  0.50000499739E+01  0.50000500000E+01  0.51100000000E-03 0.  1.
         11   -1    0    0    0    0 -0.00000000000E+00 -0.00000000000E+00 -0.50000499739E+01  0.50000500000E+01  0.51100000000E-03 0. -1.
         50    1    1    2    0    0 -0.17889101305E-02  0.12580234531E-01  0.18399456505E-01  0.50000500000E+01  0.50000000000E+01 0.  0.
         50    1    1    2    0    0  0.17889101305E-02 -0.12580234531E-01 -0.18399456505E-01  0.50000500000E+01  0.50000000000E+01 0.  0.
</event>
<event>
 4    1  0.4993983E-021  0.5000050E+01  0.7818608E-02  0.2136455E+00
        -11   -1    0    0    0    0  0.00000000000E+00  0.00000000000E+00  0.50000499739E+01  0.50000500000E+01  0.51100000000E-03 0. -1.
         11   -1    0    0    0    0 -0.00000000000E+00 -0.00000000000E+00 -0.50000499739E+01  0.50000500000E+01  0.51100000000E-03 0.  1.
         50    1    1    2    0    0 -0.77313648952E-02  0.10370229430E-01 -0.18239704998E-01  0.50000500000E+01  0.50000000000E+01 0.  1.
         50    1    1    2    0    0  0.77313648952E-02 -0.10370229430E-01  0.18239704998E-01  0.50000500000E+01  0.50000000000E+01 0. -1.
</event>
<event>
 4    1  0.4993983E-021  0.5000050E+01  0.7818608E-02  0.2136455E+00
        -11   -1    0    0    0    0  0.00000000000E+00  0.00000000000E+00  0.50000499739E+01  0.50000500000E+01  0.51100000000E-03 0.  1.
         11   -1    0    0    0    0 -0.00000000000E+00 -0.00000000000E+00 -0.50000499739E+01  0.50000500000E+01  0.51100000000E-03 0. -1.
         50    1    1    2    0    0 -0.11664770716E-02 -0.27161924594E-02  0.22164479009E-01  0.50000500000E+01  0.50000000000E+01 0.  0.
         50    1    1    2    0    0  0.11664770716E-02  0.27161924594E-02 -0.22164479009E-01  0.50000500000E+01  0.50000000000E+01 0. -1.
</event>
<event>
 4    1  0.4993983E-021  0.5000050E+01  0.7818608E-02  0.2136455E+00
        -11   -1    0    0    0    0  0.00000000000E+00  0.00000000000E+00  0.50000499739E+01  0.50000500000E+01  0.51100000000E-03 0. -1.
         11   -1    0    0    0    0 -0.00000000000E+00 -0.00000000000E+00 -0.50000499739E+01  0.50000500000E+01  0.51100000000E-03 0.  1.
         50    1    1    2    0    0 -0.10138059804E-01  0.12752243332E-01 -0.15316740300E-01  0.50000500000E+01  0.50000000000E+01 0.  1.
         50    1    1    2    0    0  0.10138059804E-01 -0.12752243332E-01  0.15316740300E-01  0.50000500000E+01  0.50000000000E+01 0. -1.
</event>
<event>
 4    1  0.4993983E-021  0.5000050E+01  0.7818608E-02  0.2136455E+00
        -11   -1    0    0    0    0  0.00000000000E+00  0.00000000000E+00  0.50000499739E+01  0.50000500000E+01  0.51100000000E-03 0. -1.
         11   -1    0    0    0    0 -0.00000000000E+00 -0.00000000000E+00 -0.50000499739E+01  0.50000500000E+01  0.51100000000E-03 0.  1.
         50    1    1    2    0    0 -0.15201705326E-01  0.16314303053E-01 -0.16595695487E-02  0.50000500000E+01  0.50000000000E+01 0. -1.
         50    1    1    2    0    0  0.15201705326E-01 -0.16314303053E-01  0.16595695487E-02  0.50000500000E+01  0.50000000000E+01 0.  0.
</event>
<event>
 4    1  0.4993983E-021  0.5000050E+01  0.7818608E-02  0.2136455E+00
        -11   -1    0    0    0    0  0.00000000000E+00  0.00000000000E+00  0.50000499739E+01  0.50000500000E+01  0.51100000000E-03 0. -1.
         11   -1    0    0    0    0 -0.00000000000E+00 -0.00000000000E+00 -0.50000499739E+01  0.50000500000E+01  0.51100000000E-03 0.  1.
         50    1    1    2    0    0  0.21528178547E-01 -0.34487151420E-03 -0.60349889875E-02  0.50000500000E+01  0.50000000000E+01 0.  1.
         50    1    1    2    0    0 -0.21528178547E-01  0.34487151420E-03  0.60349889875E-02  0.50000500000E+01  0.50000000000E+01 0.  0.
</event>
<event>
 4    1  0.4993983E-021  0.5000050E+01  0.7818608E-02  0.2136455E+00
        -11   -1    0    0    0    0  0.00000000000E+00  0.00000000000E+00  0.50000499739E+01  0.50000500000E+01  0.51100000000E-03 0. -1.
         11   -1    0    0    0    0 -0.00000000000E+00 -0.00000000000E+00 -0.50000499739E+01  0.50000500000E+01  0.51100000000E-03 0.  1.
         50    1    1    2    0    0  0.34303309702E-02 -0.22007326664E-01 -0.19781057922E-02  0.50000500000E+01  0.50000000000E+01 0.  1.
         50    1    1    2    0    0 -0.34303309702E-02  0.22007326664E-01  0.19781057922E-02  0.50000500000E+01  0.50000000000E+01 0. -1.
</event>
<event>
 4    1  0.4993983E-021  0.5000050E+01  0.7818608E-02  0.2136455E+00
        -11   -1    0    0    0    0  0.00000000000E+00  0.00000000000E+00  0.50000499739E+01  0.50000500000E+01  0.51100000000E-03 0. -1.
         11   -1    0    0    0    0 -0.00000000000E+00 -0.00000000000E+00 -0.50000499739E+01  0.50000500000E+01  0.51100000000E-03 0.  1.
         50    1    1    2    0    0  0.11573431913E-01  0.16678844067E-01 -0.93741311255E-02  0.50000500000E+01  0.50000000000E+01 0.  1.
         50    1    1    2    0    0 -0.11573431913E-01 -0.16678844067E-01  0.93741311255E-02  0.50000500000E+01  0.50000000000E+01 0. -1.
</event>
<event>
 4    1  0.4993983E-021  0.5000050E+01  0.7818608E-02  0.2136455E+00
        -11   -1    0    0    0    0  0.00000000000E+00  0.00000000000E+00  0.50000499739E+01  0.50000500000E+01  0.51100000000E-03 0.  1.
         11   -1    0    0    0    0 -0.00000000000E+00 -0.00000000000E+00 -0.50000499739E+01  0.50000500000E+01  0.51100000000E-03 0. -1.
         50    1    1    2    0    0 -0.63289819981E-02 -0.21004496826E-01 -0.43310044984E-02  0.50000500000E+01  0.50000000000E+01 0.  0.
         50    1    1    2    0    0  0.63289819981E-02  0.21004496826E-01  0.43310044984E-02  0.50000500000E+01  0.50000000000E+01 0.  1.
</event>
<event>
 4    1  0.4993983E-021  0.5000050E+01  0.7818608E-02  0.2136455E+00
        -11   -1    0    0    0    0  0.00000000000E+00  0.00000000000E+00  0.50000499739E+01  0.50000500000E+01  0.51100000000E-03 0. -1.
         11   -1    0    0    0    0 -0.00000000000E+00 -0.00000000000E+00 -0.50000499739E+01  0.50000500000E+01  0.51100000000E-03 0.  1.
         50    1    1    2    0    0  0.59137808540E-02 -0.27278638490E-02  0.21391317277E-01  0.50000500000E+01  0.50000000000E+01 0. -1.
         50    1    1    2    0    0 -0.59137808540E-02  0.27278638490E-02 -0.21391317277E-01  0.50000500000E+01  0.50000000000E+01 0.  0.
</event>
<event>
 4    1  0.4993983E-021  0.5000050E+01  0.7818608E-02  0.2136455E+00
        -11   -1    0    0    0    0  0.00000000000E+00  0.00000000000E+00  0.50000499739E+01  0.50000500000E+01  0.51100000000E-03 0.  1.
         11   -1    0    0    0    0 -0.00000000000E+00 -0.00000000000E+00 -0.50000499739E+01  0.50000500000E+01  0.51100000000E-03 0. -1.
         50    1    1    2    0    0 -0.18334006926E-01  0.44679109484E-02 -0.11996018580E-01  0.50000500000E+01  0.50000000000E+01 0.  0.
         50    1    1    2    0    0  0.18334006926E-01 -0.44679109484E-02  0.11996018580E-01  0.50000500000E+01  0.50000000000E+01 0. -1.
</event>
<event>
 4    1  0.4993983E-021  0.5000050E+01  0.7818608E-02  0.2136455E+00
        -11   -1    0    0    0    0  0.00000000000E+00  0.00000000000E+00  0.50000499739E+01  0.50000500000E+01  0.51100000000E-03 0.  1.
         11   -1    0    0    0    0 -0.00000000000E+00 -0.00000000000E+00 -0.50000499739E+01  0.50000500000E+01  0.51100000000E-03 0. -1.
         50    1    1    2    0    0  0.90911334196E-03 -0.18221760948E-01  0.12928396686E-01  0.50000500000E+01  0.50000000000E+01 0. -1.
         50    1    1    2    0    0 -0.90911334196E-03  0.18221760948E-01 -0.12928396686E-01  0.50000500000E+01  0.50000000000E+01 0.  1.
</event>
<event>
 4    1  0.4993983E-021  0.5000050E+01  0.7818608E-02  0.2136455E+00
        -11   -1    0    0    0    0  0.00000000000E+00  0.00000000000E+00  0.50000499739E+01  0.50000500000E+01  0.51100000000E-03 0.  1.
         11   -1    0    0    0    0 -0.00000000000E+00 -0.00000000000E+00 -0.50000499739E+01  0.50000500000E+01  0.51100000000E-03 0. -1.
         50    1    1    2    0    0  0.15698879191E-01  0.80654518033E-02 -0.13729391077E-01  0.50000500000E+01  0.50000000000E+01 0.  1.
         50    1    1    2    0    0 -0.15698879191E-01 -0.80654518033E-02  0.13729391077E-01  0.50000500000E+01  0.50000000000E+01 0. -1.
</event>
<event>
 4    1  0.4993983E-021  0.5000050E+01  0.7818608E-02  0.2136455E+00
        -11   -1    0    0    0    0  0.00000000000E+00  0.00000000000E+00  0.50000499739E+01  0.50000500000E+01  0.51100000000E-03 0. -1.
         11   -1    0    0    0    0 -0.00000000000E+00 -0.00000000000E+00 -0.50000499739E+01  0.50000500000E+01  0.51100000000E-03 0.  1.
         50    1    1    2    0    0 -0.20707005804E-02 -0.25903235204E-02 -0.22113455704E-01  0.50000500000E+01  0.50000000000E+01 0.  1.
         50    1    1    2    0    0  0.20707005804E-02  0.25903235204E-02  0.22113455704E-01  0.50000500000E+01  0.50000000000E+01 0.  0.
</event>
<event>
 4    1  0.4993983E-021  0.5000050E+01  0.7818608E-02  0.2136455E+00
        -11   -1    0    0    0    0  0.00000000000E+00  0.00000000000E+00  0.50000499739E+01  0.50000500000E+01  0.51100000000E-03 0. -1.
         11   -1    0    0    0    0 -0.00000000000E+00 -0.00000000000E+00 -0.50000499739E+01  0.50000500000E+01  0.51100000000E-03 0.  1.
         50    1    1    2    0    0  0.78607356976E-02  0.12428936418E-01 -0.16844372170E-01  0.50000500000E+01  0.50000000000E+01 0.  1.
         50    1    1    2    0    0 -0.78607356976E-02 -0.12428936418E-01  0.16844372170E-01  0.50000500000E+01  0.50000000000E+01 0. -1.
</event>
<event>
 4    1  0.4993983E-021  0.5000050E+01  0.7818608E-02  0.2136455E+00
        -11   -1    0    0    0    0  0.00000000000E+00  0.00000000000E+00  0.50000499739E+01  0.50000500000E+01  0.51100000000E-03 0.  1.
         11   -1    0    0    0    0 -0.00000000000E+00 -0.00000000000E+00 -0.50000499739E+01  0.50000500000E+01  0.51100000000E-03 0. -1.
         50    1    1    2    0    0  0.10894192806E-01 -0.18698898484E-01 -0.56276334794E-02  0.50000500000E+01  0.50000000000E+01 0. -1.
         50    1    1    2    0    0 -0.10894192806E-01  0.18698898484E-01  0.56276334794E-02  0.50000500000E+01  0.50000000000E+01 0.  1.
</event>
<event>
 4    1  0.4993983E-021  0.5000050E+01  0.7818608E-02  0.2136455E+00
        -11   -1    0    0    0    0  0.00000000000E+00  0.00000000000E+00  0.50000499739E+01  0.50000500000E+01  0.51100000000E-03 0. -1.
         11   -1    0    0    0    0 -0.00000000000E+00 -0.00000000000E+00 -0.50000499739E+01  0.50000500000E+01  0.51100000000E-03 0.  1.
         50    1    1    2    0    0  0.42294666708E-02  0.67000629689E-02  0.20909884454E-01  0.50000500000E+01  0.50000000000E+01 0. -1.
         50    1    1    2    0    0 -0.42294666708E-02 -0.67000629689E-02 -0.20909884454E-01  0.50000500000E+01  0.50000000000E+01 0.  0.
</event>
<event>
 4    1  0.4993983E-021  0.5000050E+01  0.7818608E-02  0.2136455E+00
        -11   -1    0    0    0    0  0.00000000000E+00  0.00000000000E+00  0.50000499739E+01  0.50000500000E+01  0.51100000000E-03 0. -1.
         11   -1    0    0    0    0 -0.00000000000E+00 -0.00000000000E+00 -0.50000499739E+01  0.50000500000E+01  0.51100000000E-03 0.  1.
         50    1    1    2    0    0 -0.14488342807E-01  0.43678682515E-02  0.16462446648E-01  0.50000500000E+01  0.50000000000E+01 0. -1.
         50    1    1    2    0    0  0.14488342807E-01 -0.43678682515E-02 -0.16462446648E-01  0.50000500000E+01  0.50000000000E+01 0.  1.
</event>
<event>
 4    1  0.4993983E-021  0.5000050E+01  0.7818608E-02  0.2136455E+00
        -11   -1    0    0    0    0  0.00000000000E+00  0.00000000000E+00  0.50000499739E+01  0.50000500000E+01  0.51100000000E-03 0.  1.
         11   -1    0    0    0    0 -0.00000000000E+00 -0.00000000000E+00 -0.50000499739E+01  0.50000500000E+01  0.51100000000E-03 0. -1.
         50    1    1    2    0    0 -0.53481686815E-02  0.21157120659E-01 -0.48760472889E-02  0.50000500000E+01  0.50000000000E+01 0.  0.
         50    1    1    2    0    0  0.53481686815E-02 -0.21157120659E-01  0.48760472889E-02  0.50000500000E+01  0.50000000000E+01 0.  1.
</event>
<event>
 4    1  0.4993983E-021  0.5000050E+01  0.7818608E-02  0.2136455E+00
        -11   -1    0    0    0    0  0.00000000000E+00  0.00000000000E+00  0.50000499739E+01  0.50000500000E+01  0.51100000000E-03 0.  1.
         11   -1    0    0    0    0 -0.00000000000E+00 -0.00000000000E+00 -0.50000499739E+01  0.50000500000E+01  0.51100000000E-03 0. -1.
         50    1    1    2    0    0  0.14471499242E-01  0.72302895674E-02  0.15437004971E-01  0.50000500000E+01  0.50000000000E+01 0.  0.
         50    1    1    2    0    0 -0.14471499242E-01 -0.72302895674E-02 -0.15437004971E-01  0.50000500000E+01  0.50000000000E+01 0.  0.
</event>
<event>
 4    1  0.4993983E-021  0.5000050E+01  0.7818608E-02  0.2136455E+00
        -11   -1    0    0    0    0  0.00000000000E+00  0.00000000000E+00  0.50000499739E+01  0.50000500000E+01  0.51100000000E-03 0. -1.
         11   -1    0    0    0    0 -0.00000000000E+00 -0.00000000000E+00 -0.50000499739E+01  0.50000500000E+01  0.51100000000E-03 0.  1.
         50    1    1    2    0    0  0.80307688267E-02 -0.15406659782E-01  0.14076366236E-01  0.50000500000E+01  0.50000000000E+01 0. -1.
         50    1    1    2    0    0 -0.80307688267E-02  0.15406659782E-01 -0.14076366236E-01  0.50000500000E+01  0.50000000000E+01 0.  1.
</event>
<event>
 4    1  0.4993983E-021  0.5000050E+01  0.7818608E-02  0.2136455E+00
        -11   -1    0    0    0    0  0.00000000000E+00  0.00000000000E+00  0.50000499739E+01  0.50000500000E+01  0.51100000000E-03 0. -1.
         11   -1    0    0    0    0 -0.00000000000E+00 -0.00000000000E+00 -0.50000499739E+01  0.50000500000E+01  0.51100000000E-03 0.  1.
         50    1    1    2    0    0 -0.20779090282E-01  0.79234387534E-02  0.23347431019E-02  0.50000500000E+01  0.50000000000E+01 0.  0.
         50    1    1    2    0    0  0.20779090282E-01 -0.79234387534E-02 -0.23347431019E-02  0.50000500000E+01  0.50000000000E+01 0. -1.
</event>
<event>
 4    1  0.4993983E-021  0.5000050E+01  0.7818608E-02  0.2136455E+00
        -11   -1    0    0    0    0  0.00000000000E+00  0.00000000000E+00  0.50000499739E+01  0.50000500000E+01  0.51100000000E-03 0.  1.
         11   -1    0    0    0    0 -0.00000000000E+00 -0.00000000000E+00 -0.50000499739E+01  0.50000500000E+01  0.51100000000E-03 0. -1.
         50    1    1    2    0    0  0.88234513056E-02  0.12006422781E-01 -0.16673182631E-01  0.50000500000E+01  0.50000000000E+01 0.  1.
         50    1    1    2    0    0 -0.88234513056E-02 -0.12006422781E-01  0.16673182631E-01  0.50000500000E+01  0.50000000000E+01 0.  1.
</event>
<event>
 4    1  0.4993983E-021  0.5000050E+01  0.7818608E-02  0.2136455E+00
        -11   -1    0    0    0    0  0.00000000000E+00  0.00000000000E+00  0.50000499739E+01  0.50000500000E+01  0.51100000000E-03 0. -1.
         11   -1    0    0    0    0 -0.00000000000E+00 -0.00000000000E+00 -0.50000499739E+01  0.50000500000E+01  0.51100000000E-03 0.  1.
         50    1    1    2    0    0  0.70907817619E-02 -0.21025110842E-01  0.27691204496E-02  0.50000500000E+01  0.50000000000E+01 0. -1.
         50    1    1    2    0    0 -0.70907817619E-02  0.21025110842E-01 -0.27691204496E-02  0.50000500000E+01  0.50000000000E+01 0.  0.
</event>
<event>
 4    1  0.4993983E-021  0.5000050E+01  0.7818608E-02  0.2136455E+00
        -11   -1    0    0    0    0  0.00000000000E+00  0.00000000000E+00  0.50000499739E+01  0.50000500000E+01  0.51100000000E-03 0.  1.
         11   -1    0    0    0    0 -0.00000000000E+00 -0.00000000000E+00 -0.50000499739E+01  0.50000500000E+01  0.51100000000E-03 0. -1.
         50    1    1    2    0    0 -0.16082269767E-01  0.93838929703E-02  0.12381665957E-01  0.50000500000E+01  0.50000000000E+01 0.  1.
         50    1    1    2    0    0  0.16082269767E-01 -0.93838929703E-02 -0.12381665957E-01  0.50000500000E+01  0.50000000000E+01 0. -1.
</event>
<event>
 4    1  0.4993983E-021  0.5000050E+01  0.7818608E-02  0.2136455E+00
        -11   -1    0    0    0    0  0.00000000000E+00  0.00000000000E+00  0.50000499739E+01  0.50000500000E+01  0.51100000000E-03 0.  1.
         11   -1    0    0    0    0 -0.00000000000E+00 -0.00000000000E+00 -0.50000499739E+01  0.50000500000E+01  0.51100000000E-03 0. -1.
         50    1    1    2    0    0  0.18827371224E-01  0.11666036498E-01 -0.30718374340E-02  0.50000500000E+01  0.50000000000E+01 0.  0.
         50    1    1    2    0    0 -0.18827371224E-01 -0.11666036498E-01  0.30718374340E-02  0.50000500000E+01  0.50000000000E+01 0. -1.
</event>
<event>
 4    1  0.4993983E-021  0.5000050E+01  0.7818608E-02  0.2136455E+00
        -11   -1    0    0    0    0  0.00000000000E+00  0.00000000000E+00  0.50000499739E+01  0.50000500000E+01  0.51100000000E-03 0.  1.
         11   -1    0    0    0    0 -0.00000000000E+00 -0.00000000000E+00 -0.50000499739E+01  0.50000500000E+01  0.51100000000E-03 0. -1.
         50    1    1    2    0    0 -0.17101430814E-01 -0.11285499964E-01 -0.89543874542E-02  0.50000500000E+01  0.50000000000E+01 0. -1.
         50    1    1    2    0    0  0.17101430814E-01  0.11285499964E-01  0.89543874542E-02  0.50000500000E+01  0.50000000000E+01 0.  1.
</event>
<event>
 4    1  0.4993983E-021  0.5000050E+01  0.7818608E-02  0.2136455E+00
        -11   -1    0    0    0    0  0.00000000000E+00  0.00000000000E+00  0.50000499739E+01  0.50000500000E+01  0.51100000000E-03 0. -1.
         11   -1    0    0    0    0 -0.00000000000E+00 -0.00000000000E+00 -0.50000499739E+01  0.50000500000E+01  0.51100000000E-03 0.  1.
         50    1    1    2    0    0 -0.15644916443E-01 -0.10960688823E-01  0.11623355367E-01  0.50000500000E+01  0.50000000000E+01 0. -1.
         50    1    1    2    0    0  0.15644916443E-01  0.10960688823E-01 -0.11623355367E-01  0.50000500000E+01  0.50000000000E+01 0.  1.
</event>
<event>
 4    1  0.4993983E-021  0.5000050E+01  0.7818608E-02  0.2136455E+00
        -11   -1    0    0    0    0  0.00000000000E+00  0.00000000000E+00  0.50000499739E+01  0.50000500000E+01  0.51100000000E-03 0. -1.
         11   -1    0    0    0    0 -0.00000000000E+00 -0.00000000000E+00 -0.50000499739E+01  0.50000500000E+01  0.51100000000E-03 0.  1.
         50    1    1    2    0    0 -0.75051765567E-02  0.19458002305E-01 -0.80660381314E-02  0.50000500000E+01  0.50000000000E+01 0.  0.
         50    1    1    2    0    0  0.75051765567E-02 -0.19458002305E-01  0.80660381314E-02  0.50000500000E+01  0.50000000000E+01 0.  1.
</event>
<event>
 4    1  0.4993983E-021  0.5000050E+01  0.7818608E-02  0.2136455E+00
        -11   -1    0    0    0    0  0.00000000000E+00  0.00000000000E+00  0.50000499739E+01  0.50000500000E+01  0.51100000000E-03 0. -1.
         11   -1    0    0    0    0 -0.00000000000E+00 -0.00000000000E+00 -0.50000499739E+01  0.50000500000E+01  0.51100000000E-03 0.  1.
         50    1    1    2    0    0  0.94610320783E-02 -0.78100182962E-02 -0.18694785001E-01  0.50000500000E+01  0.50000000000E+01 0.  1.
         50    1    1    2    0    0 -0.94610320783E-02  0.78100182962E-02  0.18694785001E-01  0.50000500000E+01  0.50000000000E+01 0.  0.
</event>
<event>
 4    1  0.4993983E-021  0.5000050E+01  0.7818608E-02  0.2136455E+00
        -11   -1    0    0    0    0  0.00000000000E+00  0.00000000000E+00  0.50000499739E+01  0.50000500000E+01  0.51100000000E-03 0. -1.
         11   -1    0    0    0    0 -0.00000000000E+00 -0.00000000000E+00 -0.50000499739E+01  0.50000500000E+01  0.51100000000E-03 0.  1.
         50    1    1    2    0    0  0.52106466076E-02  0.21732218224E-01  0.74990199220E-03  0.50000500000E+01  0.50000000000E+01 0. -1.
         50    1    1    2    0    0 -0.52106466076E-02 -0.21732218224E-01 -0.74990199220E-03  0.50000500000E+01  0.50000000000E+01 0.  1.
</event>
<event>
 4    1  0.4993983E-021  0.5000050E+01  0.7818608E-02  0.2136455E+00
        -11   -1    0    0    0    0  0.00000000000E+00  0.00000000000E+00  0.50000499739E+01  0.50000500000E+01  0.51100000000E-03 0. -1.
         11   -1    0    0    0    0 -0.00000000000E+00 -0.00000000000E+00 -0.50000499739E+01  0.50000500000E+01  0.51100000000E-03 0.  1.
         50    1    1    2    0    0 -0.16120667104E-01  0.72388894397E-02 -0.13701279933E-01  0.50000500000E+01  0.50000000000E+01 0.  1.
         50    1    1    2    0    0  0.16120667104E-01 -0.72388894397E-02  0.13701279933E-01  0.50000500000E+01  0.50000000000E+01 0. -1.
</event>
<event>
 4    1  0.4993983E-021  0.5000050E+01  0.7818608E-02  0.2136455E+00
        -11   -1    0    0    0    0  0.00000000000E+00  0.00000000000E+00  0.50000499739E+01  0.50000500000E+01  0.51100000000E-03 0.  1.
         11   -1    0    0    0    0 -0.00000000000E+00 -0.00000000000E+00 -0.50000499739E+01  0.50000500000E+01  0.51100000000E-03 0. -1.
         50    1    1    2    0    0 -0.18630710520E-01  0.83005352507E-02  0.91651644870E-02  0.50000500000E+01  0.50000000000E+01 0.  1.
         50    1    1    2    0    0  0.18630710520E-01 -0.83005352507E-02 -0.91651644870E-02  0.50000500000E+01  0.50000000000E+01 0. -1.
</event>
<event>
 4    1  0.4993983E-021  0.5000050E+01  0.7818608E-02  0.2136455E+00
        -11   -1    0    0    0    0  0.00000000000E+00  0.00000000000E+00  0.50000499739E+01  0.50000500000E+01  0.51100000000E-03 0.  1.
         11   -1    0    0    0    0 -0.00000000000E+00 -0.00000000000E+00 -0.50000499739E+01  0.50000500000E+01  0.51100000000E-03 0. -1.
         50    1    1    2    0    0 -0.15486591383E-01  0.13473098992E-01  0.88681221744E-02  0.50000500000E+01  0.50000000000E+01 0.  0.
         50    1    1    2    0    0  0.15486591383E-01 -0.13473098992E-01 -0.88681221744E-02  0.50000500000E+01  0.50000000000E+01 0.  0.
</event>
<event>
 4    1  0.4993983E-021  0.5000050E+01  0.7818608E-02  0.2136455E+00
        -11   -1    0    0    0    0  0.00000000000E+00  0.00000000000E+00  0.50000499739E+01  0.50000500000E+01  0.51100000000E-03 0. -1.
         11   -1    0    0    0    0 -0.00000000000E+00 -0.00000000000E+00 -0.50000499739E+01  0.50000500000E+01  0.51100000000E-03 0.  1.
         50    1    1    2    0    0  0.10395118169E-01 -0.19753602498E-01 -0.13187898165E-02  0.50000500000E+01  0.50000000000E+01 0.  1.
         50    1    1    2    0    0 -0.10395118169E-01  0.19753602498E-01  0.13187898165E-02  0.50000500000E+01  0.50000000000E+01 0. -1.
</event>
<event>
 4    1  0.4993983E-021  0.5000050E+01  0.7818608E-02  0.2136455E+00
        -11   -1    0    0    0    0  0.00000000000E+00  0.00000000000E+00  0.50000499739E+01  0.50000500000E+01  0.51100000000E-03 0.  1.
         11   -1    0    0    0    0 -0.00000000000E+00 -0.00000000000E+00 -0.50000499739E+01  0.50000500000E+01  0.51100000000E-03 0. -1.
         50    1    1    2    0    0  0.15429943806E-01 -0.15001838055E-01  0.60715886792E-02  0.50000500000E+01  0.50000000000E+01 0. -1.
         50    1    1    2    0    0 -0.15429943806E-01  0.15001838055E-01 -0.60715886792E-02  0.50000500000E+01  0.50000000000E+01 0.  0.
</event>
<event>
 4    1  0.4993983E-021  0.5000050E+01  0.7818608E-02  0.2136455E+00
        -11   -1    0    0    0    0  0.00000000000E+00  0.00000000000E+00  0.50000499739E+01  0.50000500000E+01  0.51100000000E-03 0. -1.
         11   -1    0    0    0    0 -0.00000000000E+00 -0.00000000000E+00 -0.50000499739E+01  0.50000500000E+01  0.51100000000E-03 0.  1.
         50    1    1    2    0    0  0.21172065709E-01  0.19930309447E-02 -0.69118710379E-02  0.50000500000E+01  0.50000000000E+01 0.  1.
         50    1    1    2    0    0 -0.21172065709E-01 -0.19930309447E-02  0.69118710379E-02  0.50000500000E+01  0.50000000000E+01 0.  0.
</event>
<event>
 4    1  0.4993983E-021  0.5000050E+01  0.7818608E-02  0.2136455E+00
        -11   -1    0    0    0    0  0.00000000000E+00  0.00000000000E+00  0.50000499739E+01  0.50000500000E+01  0.51100000000E-03 0. -1.
         11   -1    0    0    0    0 -0.00000000000E+00 -0.00000000000E+00 -0.50000499739E+01  0.50000500000E+01  0.51100000000E-03 0.  1.
         50    1    1    2    0    0  0.17119915292E-01  0.94789040675E-02  0.10819490656E-01  0.50000500000E+01  0.50000000000E+01 0. -1.
         50    1    1    2    0    0 -0.17119915292E-01 -0.94789040675E-02 -0.10819490656E-01  0.50000500000E+01  0.50000000000E+01 0.  1.
</event>
<event>
 4    1  0.4993983E-021  0.5000050E+01  0.7818608E-02  0.2136455E+00
        -11   -1    0    0    0    0  0.00000000000E+00  0.00000000000E+00  0.50000499739E+01  0.50000500000E+01  0.51100000000E-03 0. -1.
         11   -1    0    0    0    0 -0.00000000000E+00 -0.00000000000E+00 -0.50000499739E+01  0.50000500000E+01  0.51100000000E-03 0.  1.
         50    1    1    2    0    0 -0.14785220498E-01  0.16765223316E-01 -0.57187584406E-03  0.50000500000E+01  0.50000000000E+01 0.  1.
         50    1    1    2    0    0  0.14785220498E-01 -0.16765223316E-01  0.57187584406E-03  0.50000500000E+01  0.50000000000E+01 0. -1.
</event>
<event>
 4    1  0.4993983E-021  0.5000050E+01  0.7818608E-02  0.2136455E+00
        -11   -1    0    0    0    0  0.00000000000E+00  0.00000000000E+00  0.50000499739E+01  0.50000500000E+01  0.51100000000E-03 0.  1.
         11   -1    0    0    0    0 -0.00000000000E+00 -0.00000000000E+00 -0.50000499739E+01  0.50000500000E+01  0.51100000000E-03 0. -1.
         50    1    1    2    0    0 -0.70322592333E-02 -0.12182803678E-01 -0.17381861943E-01  0.50000500000E+01  0.50000000000E+01 0. -1.
         50    1    1    2    0    0  0.70322592333E-02  0.12182803678E-01  0.17381861943E-01  0.50000500000E+01  0.50000000000E+01 0.  1.
</event>
<event>
 4    1  0.4993983E-021  0.5000050E+01  0.7818608E-02  0.2136455E+00
        -11   -1    0    0    0    0  0.00000000000E+00  0.00000000000E+00  0.50000499739E+01  0.50000500000E+01  0.51100000000E-03 0.  1.
         11   -1    0    0    0    0 -0.00000000000E+00 -0.00000000000E+00 -0.50000499739E+01  0.50000500000E+01  0.51100000000E-03 0. -1.
         50    1    1    2    0    0 -0.48440429377E-03  0.21724945369E-01 -0.52720585359E-02  0.50000500000E+01  0.50000000000E+01 0.  0.
         50    1    1    2    0    0  0.48440429377E-03 -0.21724945369E-01  0.52720585359E-02  0.50000500000E+01  0.50000000000E+01 0.  1.
</event>
<event>
 4    1  0.4993983E-021  0.5000050E+01  0.7818608E-02  0.2136455E+00
        -11   -1    0    0    0    0  0.00000000000E+00  0.00000000000E+00  0.50000499739E+01  0.50000500000E+01  0.51100000000E-03 0. -1.
         11   -1    0    0    0    0 -0.00000000000E+00 -0.00000000000E+00 -0.50000499739E+01  0.50000500000E+01  0.51100000000E-03 0.  1.
         50    1    1    2    0    0 -0.47455923882E-02  0.21317019472E-01  0.48027631317E-02  0.50000500000E+01  0.50000000000E+01 0. -1.
         50    1    1    2    0    0  0.47455923882E-02 -0.21317019472E-01 -0.48027631317E-02  0.50000500000E+01  0.50000000000E+01 0.  1.
</event>
<event>
 4    1  0.4993983E-021  0.5000050E+01  0.7818608E-02  0.2136455E+00
        -11   -1    0    0    0    0  0.00000000000E+00  0.00000000000E+00  0.50000499739E+01  0.50000500000E+01  0.51100000000E-03 0.  1.
         11   -1    0    0    0    0 -0.00000000000E+00 -0.00000000000E+00 -0.50000499739E+01  0.50000500000E+01  0.51100000000E-03 0. -1.
         50    1    1    2    0    0  0.19907215519E-01  0.89756419094E-02 -0.48107299440E-02  0.50000500000E+01  0.50000000000E+01 0. -1.
         50    1    1    2    0    0 -0.19907215519E-01 -0.89756419094E-02  0.48107299440E-02  0.50000500000E+01  0.50000000000E+01 0.  1.
</event>
<event>
 4    1  0.4993983E-021  0.5000050E+01  0.7818608E-02  0.2136455E+00
        -11   -1    0    0    0    0  0.00000000000E+00  0.00000000000E+00  0.50000499739E+01  0.50000500000E+01  0.51100000000E-03 0. -1.
         11   -1    0    0    0    0 -0.00000000000E+00 -0.00000000000E+00 -0.50000499739E+01  0.50000500000E+01  0.51100000000E-03 0.  1.
         50    1    1    2    0    0  0.67946675867E-02 -0.14296003546E-01  0.15794279819E-01  0.50000500000E+01  0.50000000000E+01 0.  0.
         50    1    1    2    0    0 -0.67946675867E-02  0.14296003546E-01 -0.15794279819E-01  0.50000500000E+01  0.50000000000E+01 0.  0.
</event>
<event>
 4    1  0.4993983E-021  0.5000050E+01  0.7818608E-02  0.2136455E+00
        -11   -1    0    0    0    0  0.00000000000E+00  0.00000000000E+00  0.50000499739E+01  0.50000500000E+01  0.51100000000E-03 0.  1.
         11   -1    0    0    0    0 -0.00000000000E+00 -0.00000000000E+00 -0.50000499739E+01  0.50000500000E+01  0.51100000000E-03 0. -1.
         50    1    1    2    0    0  0.76808983359E-02 -0.16907172617E-01  0.12456075419E-01  0.50000500000E+01  0.50000000000E+01 0. -1.
         50    1    1    2    0    0 -0.76808983359E-02  0.16907172617E-01 -0.12456075419E-01  0.50000500000E+01  0.50000000000E+01 0. -1.
</event>
<event>
 4    1  0.4993983E-021  0.5000050E+01  0.7818608E-02  0.2136455E+00
        -11   -1    0    0    0    0  0.00000000000E+00  0.00000000000E+00  0.50000499739E+01  0.50000500000E+01  0.51100000000E-03 0.  1.
         11   -1    0    0    0    0 -0.00000000000E+00 -0.00000000000E+00 -0.50000499739E+01  0.50000500000E+01  0.51100000000E-03 0. -1.
         50    1    1    2    0    0 -0.15115583523E-01  0.24136292978E-02  0.16300184918E-01  0.50000500000E+01  0.50000000000E+01 0. -1.
         50    1    1    2    0    0  0.15115583523E-01 -0.24136292978E-02 -0.16300184918E-01  0.50000500000E+01  0.50000000000E+01 0. -1.
</event>
<event>
 4    1  0.4993983E-021  0.5000050E+01  0.7818608E-02  0.2136455E+00
        -11   -1    0    0    0    0  0.00000000000E+00  0.00000000000E+00  0.50000499739E+01  0.50000500000E+01  0.51100000000E-03 0.  1.
         11   -1    0    0    0    0 -0.00000000000E+00 -0.00000000000E+00 -0.50000499739E+01  0.50000500000E+01  0.51100000000E-03 0. -1.
         50    1    1    2    0    0  0.13702158430E-01 -0.16048440000E-01 -0.73960075678E-02  0.50000500000E+01  0.50000000000E+01 0.  1.
         50    1    1    2    0    0 -0.13702158430E-01  0.16048440000E-01  0.73960075678E-02  0.50000500000E+01  0.50000000000E+01 0.  0.
</event>
<event>
 4    1  0.4993983E-021  0.5000050E+01  0.7818608E-02  0.2136455E+00
        -11   -1    0    0    0    0  0.00000000000E+00  0.00000000000E+00  0.50000499739E+01  0.50000500000E+01  0.51100000000E-03 0. -1.
         11   -1    0    0    0    0 -0.00000000000E+00 -0.00000000000E+00 -0.50000499739E+01  0.50000500000E+01  0.51100000000E-03 0.  1.
         50    1    1    2    0    0  0.31937737031E-02  0.67023454998E-02  0.21092199372E-01  0.50000500000E+01  0.50000000000E+01 0.  0.
         50    1    1    2    0    0 -0.31937737031E-02 -0.67023454998E-02 -0.21092199372E-01  0.50000500000E+01  0.50000000000E+01 0.  0.
</event>
<event>
 4    1  0.4993983E-021  0.5000050E+01  0.7818608E-02  0.2136455E+00
        -11   -1    0    0    0    0  0.00000000000E+00  0.00000000000E+00  0.50000499739E+01  0.50000500000E+01  0.51100000000E-03 0. -1.
         11   -1    0    0    0    0 -0.00000000000E+00 -0.00000000000E+00 -0.50000499739E+01  0.50000500000E+01  0.51100000000E-03 0.  1.
         50    1    1    2    0    0 -0.10223211496E-01  0.19349619049E-01 -0.45913711840E-02  0.50000500000E+01  0.50000000000E+01 0.  0.
         50    1    1    2    0    0  0.10223211496E-01 -0.19349619049E-01  0.45913711840E-02  0.50000500000E+01  0.50000000000E+01 0.  1.
</event>
<event>
 4    1  0.4993983E-021  0.5000050E+01  0.7818608E-02  0.2136455E+00
        -11   -1    0    0    0    0  0.00000000000E+00  0.00000000000E+00  0.50000499739E+01  0.50000500000E+01  0.51100000000E-03 0.  1.
         11   -1    0    0    0    0 -0.00000000000E+00 -0.00000000000E+00 -0.50000499739E+01  0.50000500000E+01  0.51100000000E-03 0. -1.
         50    1    1    2    0    0  0.17370792647E-01 -0.85985440519E-02 -0.11150027041E-01  0.50000500000E+01  0.50000000000E+01 0.  0.
         50    1    1    2    0    0 -0.17370792647E-01  0.85985440519E-02  0.11150027041E-01  0.50000500000E+01  0.50000000000E+01 0.  0.
</event>
<event>
 4    1  0.4993983E-021  0.5000050E+01  0.7818608E-02  0.2136455E+00
        -11   -1    0    0    0    0  0.00000000000E+00  0.00000000000E+00  0.50000499739E+01  0.50000500000E+01  0.51100000000E-03 0.  1.
         11   -1    0    0    0    0 -0.00000000000E+00 -0.00000000000E+00 -0.50000499739E+01  0.50000500000E+01  0.51100000000E-03 0. -1.
         50    1    1    2    0    0 -0.15121207038E-01  0.85245487341E-02  0.14095519380E-01  0.50000500000E+01  0.50000000000E+01 0. -1.
         50    1    1    2    0    0  0.15121207038E-01 -0.85245487341E-02 -0.14095519380E-01  0.50000500000E+01  0.50000000000E+01 0.  1.
</event>
<event>
 4    1  0.4993983E-021  0.5000050E+01  0.7818608E-02  0.2136455E+00
        -11   -1    0    0    0    0  0.00000000000E+00  0.00000000000E+00  0.50000499739E+01  0.50000500000E+01  0.51100000000E-03 0. -1.
         11   -1    0    0    0    0 -0.00000000000E+00 -0.00000000000E+00 -0.50000499739E+01  0.50000500000E+01  0.51100000000E-03 0.  1.
         50    1    1    2    0    0 -0.17943408568E-01  0.11531003335E-01  0.67136093905E-02  0.50000500000E+01  0.50000000000E+01 0.  1.
         50    1    1    2    0    0  0.17943408568E-01 -0.11531003335E-01 -0.67136093905E-02  0.50000500000E+01  0.50000000000E+01 0. -1.
</event>
<event>
 4    1  0.4993983E-021  0.5000050E+01  0.7818608E-02  0.2136455E+00
        -11   -1    0    0    0    0  0.00000000000E+00  0.00000000000E+00  0.50000499739E+01  0.50000500000E+01  0.51100000000E-03 0. -1.
         11   -1    0    0    0    0 -0.00000000000E+00 -0.00000000000E+00 -0.50000499739E+01  0.50000500000E+01  0.51100000000E-03 0.  1.
         50    1    1    2    0    0  0.71815028846E-02 -0.11650088496E-01  0.17683437289E-01  0.50000500000E+01  0.50000000000E+01 0.  0.
         50    1    1    2    0    0 -0.71815028846E-02  0.11650088496E-01 -0.17683437289E-01  0.50000500000E+01  0.50000000000E+01 0.  0.
</event>
<event>
 4    1  0.4993983E-021  0.5000050E+01  0.7818608E-02  0.2136455E+00
        -11   -1    0    0    0    0  0.00000000000E+00  0.00000000000E+00  0.50000499739E+01  0.50000500000E+01  0.51100000000E-03 0.  1.
         11   -1    0    0    0    0 -0.00000000000E+00 -0.00000000000E+00 -0.50000499739E+01  0.50000500000E+01  0.51100000000E-03 0. -1.
         50    1    1    2    0    0 -0.22297951551E-01 -0.16338852704E-02 -0.36643630249E-03  0.50000500000E+01  0.50000000000E+01 0.  1.
         50    1    1    2    0    0  0.22297951551E-01  0.16338852704E-02  0.36643630249E-03  0.50000500000E+01  0.50000000000E+01 0.  0.
</event>
<event>
 4    1  0.4993983E-021  0.5000050E+01  0.7818608E-02  0.2136455E+00
        -11   -1    0    0    0    0  0.00000000000E+00  0.00000000000E+00  0.50000499739E+01  0.50000500000E+01  0.51100000000E-03 0.  1.
         11   -1    0    0    0    0 -0.00000000000E+00 -0.00000000000E+00 -0.50000499739E+01  0.50000500000E+01  0.51100000000E-03 0. -1.
         50    1    1    2    0    0 -0.18405271357E-01 -0.30916163399E-02 -0.12316265452E-01  0.50000500000E+01  0.50000000000E+01 0.  0.
         50    1    1    2    0    0  0.18405271357E-01  0.30916163399E-02  0.12316265452E-01  0.50000500000E+01  0.50000000000E+01 0.  0.
</event>
<event>
 4    1  0.4993983E-021  0.5000050E+01  0.7818608E-02  0.2136455E+00
        -11   -1    0    0    0    0  0.00000000000E+00  0.00000000000E+00  0.50000499739E+01  0.50000500000E+01  0.51100000000E-03 0.  1.
         11   -1    0    0    0    0 -0.00000000000E+00 -0.00000000000E+00 -0.50000499739E+01  0.50000500000E+01  0.51100000000E-03 0. -1.
         50    1    1    2    0    0  0.18800426199E-01 -0.11680771451E-01 -0.31790018904E-02  0.50000500000E+01  0.50000000000E+01 0.  0.
         50    1    1    2    0    0 -0.18800426199E-01  0.11680771451E-01  0.31790018904E-02  0.50000500000E+01  0.50000000000E+01 0. -1.
</event>
<event>
 4    1  0.4993983E-021  0.5000050E+01  0.7818608E-02  0.2136455E+00
        -11   -1    0    0    0    0  0.00000000000E+00  0.00000000000E+00  0.50000499739E+01  0.50000500000E+01  0.51100000000E-03 0.  1.
         11   -1    0    0    0    0 -0.00000000000E+00 -0.00000000000E+00 -0.50000499739E+01  0.50000500000E+01  0.51100000000E-03 0. -1.
         50    1    1    2    0    0 -0.59447654811E-02  0.21500134170E-01  0.15512878631E-02  0.50000500000E+01  0.50000000000E+01 0. -1.
         50    1    1    2    0    0  0.59447654811E-02 -0.21500134170E-01 -0.15512878631E-02  0.50000500000E+01  0.50000000000E+01 0.  1.
</event>
<event>
 4    1  0.4993983E-021  0.5000050E+01  0.7818608E-02  0.2136455E+00
        -11   -1    0    0    0    0  0.00000000000E+00  0.00000000000E+00  0.50000499739E+01  0.50000500000E+01  0.51100000000E-03 0.  1.
         11   -1    0    0    0    0 -0.00000000000E+00 -0.00000000000E+00 -0.50000499739E+01  0.50000500000E+01  0.51100000000E-03 0. -1.
         50    1    1    2    0    0  0.84725899674E-03  0.42487504243E-02  0.21937018303E-01  0.50000500000E+01  0.50000000000E+01 0.  1.
         50    1    1    2    0    0 -0.84725899674E-03 -0.42487504243E-02 -0.21937018303E-01  0.50000500000E+01  0.50000000000E+01 0.  0.
</event>
<event>
 4    1  0.4993983E-021  0.5000050E+01  0.7818608E-02  0.2136455E+00
        -11   -1    0    0    0    0  0.00000000000E+00  0.00000000000E+00  0.50000499739E+01  0.50000500000E+01  0.51100000000E-03 0.  1.
         11   -1    0    0    0    0 -0.00000000000E+00 -0.00000000000E+00 -0.50000499739E+01  0.50000500000E+01  0.51100000000E-03 0. -1.
         50    1    1    2    0    0 -0.51505443969E-02  0.10306436860E-01  0.19163813599E-01  0.50000500000E+01  0.50000000000E+01 0.  0.
         50    1    1    2    0    0  0.51505443969E-02 -0.10306436860E-01 -0.19163813599E-01  0.50000500000E+01  0.50000000000E+01 0. -1.
</event>
<event>
 4    1  0.4993983E-021  0.5000050E+01  0.7818608E-02  0.2136455E+00
        -11   -1    0    0    0    0  0.00000000000E+00  0.00000000000E+00  0.50000499739E+01  0.50000500000E+01  0.51100000000E-03 0.  1.
         11   -1    0    0    0    0 -0.00000000000E+00 -0.00000000000E+00 -0.50000499739E+01  0.50000500000E+01  0.51100000000E-03 0. -1.
         50    1    1    2    0    0  0.15239043644E-01 -0.40395864991E-02 -0.15857357590E-01  0.50000500000E+01  0.50000000000E+01 0.  1.
         50    1    1    2    0    0 -0.15239043644E-01  0.40395864991E-02  0.15857357590E-01  0.50000500000E+01  0.50000000000E+01 0.  0.
</event>
<event>
 4    1  0.4993983E-021  0.5000050E+01  0.7818608E-02  0.2136455E+00
        -11   -1    0    0    0    0  0.00000000000E+00  0.00000000000E+00  0.50000499739E+01  0.50000500000E+01  0.51100000000E-03 0.  1.
         11   -1    0    0    0    0 -0.00000000000E+00 -0.00000000000E+00 -0.50000499739E+01  0.50000500000E+01  0.51100000000E-03 0. -1.
         50    1    1    2    0    0 -0.10392713029E-01 -0.18512719212E-01 -0.70194902434E-02  0.50000500000E+01  0.50000000000E+01 0.  0.
         50    1    1    2    0    0  0.10392713029E-01  0.18512719212E-01  0.70194902434E-02  0.50000500000E+01  0.50000000000E+01 0. -1.
</event>
<event>
 4    1  0.4993983E-021  0.5000050E+01  0.7818608E-02  0.2136455E+00
        -11   -1    0    0    0    0  0.00000000000E+00  0.00000000000E+00  0.50000499739E+01  0.50000500000E+01  0.51100000000E-03 0.  1.
         11   -1    0    0    0    0 -0.00000000000E+00 -0.00000000000E+00 -0.50000499739E+01  0.50000500000E+01  0.51100000000E-03 0. -1.
         50    1    1    2    0    0  0.26179434423E-02  0.68316931149E-02 -0.21129998611E-01  0.50000500000E+01  0.50000000000E+01 0.  0.
         50    1    1    2    0    0 -0.26179434423E-02 -0.68316931149E-02  0.21129998611E-01  0.50000500000E+01  0.50000000000E+01 0.  1.
</event>
<event>
 4    1  0.4993983E-021  0.5000050E+01  0.7818608E-02  0.2136455E+00
        -11   -1    0    0    0    0  0.00000000000E+00  0.00000000000E+00  0.50000499739E+01  0.50000500000E+01  0.51100000000E-03 0.  1.
         11   -1    0    0    0    0 -0.00000000000E+00 -0.00000000000E+00 -0.50000499739E+01  0.50000500000E+01  0.51100000000E-03 0. -1.
         50    1    1    2    0    0 -0.59525146319E-02  0.16412410848E-01  0.13971500982E-01  0.50000500000E+01  0.50000000000E+01 0.  0.
         50    1    1    2    0    0  0.59525146319E-02 -0.16412410848E-01 -0.13971500982E-01  0.50000500000E+01  0.50000000000E+01 0.  0.
</event>
<event>
 4    1  0.4993983E-021  0.5000050E+01  0.7818608E-02  0.2136455E+00
        -11   -1    0    0    0    0  0.00000000000E+00  0.00000000000E+00  0.50000499739E+01  0.50000500000E+01  0.51100000000E-03 0.  1.
         11   -1    0    0    0    0 -0.00000000000E+00 -0.00000000000E+00 -0.50000499739E+01  0.50000500000E+01  0.51100000000E-03 0. -1.
         50    1    1    2    0    0 -0.16904172570E-02  0.17306205695E-01 -0.14058457736E-01  0.50000500000E+01  0.50000000000E+01 0. -1.
         50    1    1    2    0    0  0.16904172570E-02 -0.17306205695E-01  0.14058457736E-01  0.50000500000E+01  0.50000000000E+01 0.  1.
</event>
<event>
 4    1  0.4993983E-021  0.5000050E+01  0.7818608E-02  0.2136455E+00
        -11   -1    0    0    0    0  0.00000000000E+00  0.00000000000E+00  0.50000499739E+01  0.50000500000E+01  0.51100000000E-03 0. -1.
         11   -1    0    0    0    0 -0.00000000000E+00 -0.00000000000E+00 -0.50000499739E+01  0.50000500000E+01  0.51100000000E-03 0.  1.
         50    1    1    2    0    0 -0.16168432323E-01  0.12403166827E-01  0.92057454282E-02  0.50000500000E+01  0.50000000000E+01 0. -1.
         50    1    1    2    0    0  0.16168432323E-01 -0.12403166827E-01 -0.92057454282E-02  0.50000500000E+01  0.50000000000E+01 0. -1.
</event>
<event>
 4    1  0.4993983E-021  0.5000050E+01  0.7818608E-02  0.2136455E+00
        -11   -1    0    0    0    0  0.00000000000E+00  0.00000000000E+00  0.50000499739E+01  0.50000500000E+01  0.51100000000E-03 0.  1.
         11   -1    0    0    0    0 -0.00000000000E+00 -0.00000000000E+00 -0.50000499739E+01  0.50000500000E+01  0.51100000000E-03 0. -1.
         50    1    1    2    0    0 -0.18848815679E-01  0.53447550538E-02  0.10777673261E-01  0.50000500000E+01  0.50000000000E+01 0.  1.
         50    1    1    2    0    0  0.18848815679E-01 -0.53447550538E-02 -0.10777673261E-01  0.50000500000E+01  0.50000000000E+01 0. -1.
</event>
<event>
 4    1  0.4993983E-021  0.5000050E+01  0.7818608E-02  0.2136455E+00
        -11   -1    0    0    0    0  0.00000000000E+00  0.00000000000E+00  0.50000499739E+01  0.50000500000E+01  0.51100000000E-03 0. -1.
         11   -1    0    0    0    0 -0.00000000000E+00 -0.00000000000E+00 -0.50000499739E+01  0.50000500000E+01  0.51100000000E-03 0.  1.
         50    1    1    2    0    0 -0.51830117351E-02 -0.13240470332E-01 -0.17257718121E-01  0.50000500000E+01  0.50000000000E+01 0.  0.
         50    1    1    2    0    0  0.51830117351E-02  0.13240470332E-01  0.17257718121E-01  0.50000500000E+01  0.50000000000E+01 0.  0.
</event>
<event>
 4    1  0.4993983E-021  0.5000050E+01  0.7818608E-02  0.2136455E+00
        -11   -1    0    0    0    0  0.00000000000E+00  0.00000000000E+00  0.50000499739E+01  0.50000500000E+01  0.51100000000E-03 0.  1.
         11   -1    0    0    0    0 -0.00000000000E+00 -0.00000000000E+00 -0.50000499739E+01  0.50000500000E+01  0.51100000000E-03 0. -1.
         50    1    1    2    0    0 -0.20259777799E-01 -0.78661336478E-02  0.52600232872E-02  0.50000500000E+01  0.50000000000E+01 0. -1.
         50    1    1    2    0    0  0.20259777799E-01  0.78661336478E-02 -0.52600232872E-02  0.50000500000E+01  0.50000000000E+01 0.  0.
</event>
<event>
 4    1  0.4993983E-021  0.5000050E+01  0.7818608E-02  0.2136455E+00
        -11   -1    0    0    0    0  0.00000000000E+00  0.00000000000E+00  0.50000499739E+01  0.50000500000E+01  0.51100000000E-03 0. -1.
         11   -1    0    0    0    0 -0.00000000000E+00 -0.00000000000E+00 -0.50000499739E+01  0.50000500000E+01  0.51100000000E-03 0.  1.
         50    1    1    2    0    0  0.49210318901E-02 -0.20902466602E-01 -0.62348083441E-02  0.50000500000E+01  0.50000000000E+01 0.  1.
         50    1    1    2    0    0 -0.49210318901E-02  0.20902466602E-01  0.62348083441E-02  0.50000500000E+01  0.50000000000E+01 0. -1.
</event>
<event>
 4    1  0.4993983E-021  0.5000050E+01  0.7818608E-02  0.2136455E+00
        -11   -1    0    0    0    0  0.00000000000E+00  0.00000000000E+00  0.50000499739E+01  0.50000500000E+01  0.51100000000E-03 0.  1.
         11   -1    0    0    0    0 -0.00000000000E+00 -0.00000000000E+00 -0.50000499739E+01  0.50000500000E+01  0.51100000000E-03 0. -1.
         50    1    1    2    0    0  0.32261015401E-02  0.13913643811E-01 -0.17204804118E-01  0.50000500000E+01  0.50000000000E+01 0. -1.
         50    1    1    2    0    0 -0.32261015401E-02 -0.13913643811E-01  0.17204804118E-01  0.50000500000E+01  0.50000000000E+01 0.  1.
</event>
<event>
 4    1  0.4993983E-021  0.5000050E+01  0.7818608E-02  0.2136455E+00
        -11   -1    0    0    0    0  0.00000000000E+00  0.00000000000E+00  0.50000499739E+01  0.50000500000E+01  0.51100000000E-03 0.  1.
         11   -1    0    0    0    0 -0.00000000000E+00 -0.00000000000E+00 -0.50000499739E+01  0.50000500000E+01  0.51100000000E-03 0. -1.
         50    1    1    2    0    0 -0.71546300437E-02  0.19341384666E-01 -0.86443396580E-02  0.50000500000E+01  0.50000000000E+01 0.  0.
         50    1    1    2    0    0  0.71546300437E-02 -0.19341384666E-01  0.86443396580E-02  0.50000500000E+01  0.50000000000E+01 0.  0.
</event>
<event>
 4    1  0.4993983E-021  0.5000050E+01  0.7818608E-02  0.2136455E+00
        -11   -1    0    0    0    0  0.00000000000E+00  0.00000000000E+00  0.50000499739E+01  0.50000500000E+01  0.51100000000E-03 0. -1.
         11   -1    0    0    0    0 -0.00000000000E+00 -0.00000000000E+00 -0.50000499739E+01  0.50000500000E+01  0.51100000000E-03 0.  1.
         50    1    1    2    0    0 -0.21758660726E-03 -0.11363424135E-01  0.19256888326E-01  0.50000500000E+01  0.50000000000E+01 0.  0.
         50    1    1    2    0    0  0.21758660726E-03  0.11363424135E-01 -0.19256888326E-01  0.50000500000E+01  0.50000000000E+01 0.  0.
</event>
<event>
 4    1  0.4993983E-021  0.5000050E+01  0.7818608E-02  0.2136455E+00
        -11   -1    0    0    0    0  0.00000000000E+00  0.00000000000E+00  0.50000499739E+01  0.50000500000E+01  0.51100000000E-03 0. -1.
         11   -1    0    0    0    0 -0.00000000000E+00 -0.00000000000E+00 -0.50000499739E+01  0.50000500000E+01  0.51100000000E-03 0.  1.
         50    1    1    2    0    0 -0.33237198141E-02  0.16779141698E-01  0.14401937039E-01  0.50000500000E+01  0.50000000000E+01 0.  0.
         50    1    1    2    0    0  0.33237198141E-02 -0.16779141698E-01 -0.14401937039E-01  0.50000500000E+01  0.50000000000E+01 0.  0.
</event>
<event>
 4    1  0.4993983E-021  0.5000050E+01  0.7818608E-02  0.2136455E+00
        -11   -1    0    0    0    0  0.00000000000E+00  0.00000000000E+00  0.50000499739E+01  0.50000500000E+01  0.51100000000E-03 0. -1.
         11   -1    0    0    0    0 -0.00000000000E+00 -0.00000000000E+00 -0.50000499739E+01  0.50000500000E+01  0.51100000000E-03 0.  1.
         50    1    1    2    0    0 -0.15105216634E-02 -0.74877074354E-02 -0.21015590919E-01  0.50000500000E+01  0.50000000000E+01 0.  0.
         50    1    1    2    0    0  0.15105216634E-02  0.74877074354E-02  0.21015590919E-01  0.50000500000E+01  0.50000000000E+01 0. -1.
</event>
<event>
 4    1  0.4993983E-021  0.5000050E+01  0.7818608E-02  0.2136455E+00
        -11   -1    0    0    0    0  0.00000000000E+00  0.00000000000E+00  0.50000499739E+01  0.50000500000E+01  0.51100000000E-03 0. -1.
         11   -1    0    0    0    0 -0.00000000000E+00 -0.00000000000E+00 -0.50000499739E+01  0.50000500000E+01  0.51100000000E-03 0.  1.
         50    1    1    2    0    0  0.22290281184E-01  0.82213092481E-03  0.15716123781E-02  0.50000500000E+01  0.50000000000E+01 0. -1.
         50    1    1    2    0    0 -0.22290281184E-01 -0.82213092481E-03 -0.15716123781E-02  0.50000500000E+01  0.50000000000E+01 0.  0.
</event>
<event>
 4    1  0.4993983E-021  0.5000050E+01  0.7818608E-02  0.2136455E+00
        -11   -1    0    0    0    0  0.00000000000E+00  0.00000000000E+00  0.50000499739E+01  0.50000500000E+01  0.51100000000E-03 0.  1.
         11   -1    0    0    0    0 -0.00000000000E+00 -0.00000000000E+00 -0.50000499739E+01  0.50000500000E+01  0.51100000000E-03 0. -1.
         50    1    1    2    0    0  0.10104219011E-01  0.19718036454E-01  0.30176640927E-02  0.50000500000E+01  0.50000000000E+01 0.  0.
         50    1    1    2    0    0 -0.10104219011E-01 -0.19718036454E-01 -0.30176640927E-02  0.50000500000E+01  0.50000000000E+01 0. -1.
</event>
<event>
 4    1  0.4993983E-021  0.5000050E+01  0.7818608E-02  0.2136455E+00
        -11   -1    0    0    0    0  0.00000000000E+00  0.00000000000E+00  0.50000499739E+01  0.50000500000E+01  0.51100000000E-03 0. -1.
         11   -1    0    0    0    0 -0.00000000000E+00 -0.00000000000E+00 -0.50000499739E+01  0.50000500000E+01  0.51100000000E-03 0.  1.
         50    1    1    2    0    0  0.17784362998E-01 -0.34871317100E-02 -0.13098047381E-01  0.50000500000E+01  0.50000000000E+01 0.  0.
         50    1    1    2    0    0 -0.17784362998E-01  0.34871317100E-02  0.13098047381E-01  0.50000500000E+01  0.50000000000E+01 0.  0.
</event>
<event>
 4    1  0.4993983E-021  0.5000050E+01  0.7818608E-02  0.2136455E+00
        -11   -1    0    0    0    0  0.00000000000E+00  0.00000000000E+00  0.50000499739E+01  0.50000500000E+01  0.51100000000E-03 0. -1.
         11   -1    0    0    0    0 -0.00000000000E+00 -0.00000000000E+00 -0.50000499739E+01  0.50000500000E+01  0.51100000000E-03 0.  1.
         50    1    1    2    0    0 -0.25115466368E-02  0.13572548393E-01 -0.17592059675E-01  0.50000500000E+01  0.50000000000E+01 0.  0.
         50    1    1    2    0    0  0.25115466368E-02 -0.13572548393E-01  0.17592059675E-01  0.50000500000E+01  0.50000000000E+01 0.  0.
</event>
<event>
 4    1  0.4993983E-021  0.5000050E+01  0.7818608E-02  0.2136455E+00
        -11   -1    0    0    0    0  0.00000000000E+00  0.00000000000E+00  0.50000499739E+01  0.50000500000E+01  0.51100000000E-03 0. -1.
         11   -1    0    0    0    0 -0.00000000000E+00 -0.00000000000E+00 -0.50000499739E+01  0.50000500000E+01  0.51100000000E-03 0.  1.
         50    1    1    2    0    0 -0.58302707311E-02  0.21280449400E-01 -0.36266949881E-02  0.50000500000E+01  0.50000000000E+01 0. -1.
         50    1    1    2    0    0  0.58302707311E-02 -0.21280449400E-01  0.36266949881E-02  0.50000500000E+01  0.50000000000E+01 0.  0.
</event>
<event>
 4    1  0.4993983E-021  0.5000050E+01  0.7818608E-02  0.2136455E+00
        -11   -1    0    0    0    0  0.00000000000E+00  0.00000000000E+00  0.50000499739E+01  0.50000500000E+01  0.51100000000E-03 0.  1.
         11   -1    0    0    0    0 -0.00000000000E+00 -0.00000000000E+00 -0.50000499739E+01  0.50000500000E+01  0.51100000000E-03 0. -1.
         50    1    1    2    0    0 -0.19395417250E-02 -0.21083250007E-01 -0.71928608369E-02  0.50000500000E+01  0.50000000000E+01 0.  0.
         50    1    1    2    0    0  0.19395417250E-02  0.21083250007E-01  0.71928608369E-02  0.50000500000E+01  0.50000000000E+01 0.  0.
</event>
<event>
 4    1  0.4993983E-021  0.5000050E+01  0.7818608E-02  0.2136455E+00
        -11   -1    0    0    0    0  0.00000000000E+00  0.00000000000E+00  0.50000499739E+01  0.50000500000E+01  0.51100000000E-03 0. -1.
         11   -1    0    0    0    0 -0.00000000000E+00 -0.00000000000E+00 -0.50000499739E+01  0.50000500000E+01  0.51100000000E-03 0.  1.
         50    1    1    2    0    0  0.20768946730E-01 -0.82811938647E-02 -0.27418953223E-03  0.50000500000E+01  0.50000000000E+01 0. -1.
         50    1    1    2    0    0 -0.20768946730E-01  0.82811938647E-02  0.27418953223E-03  0.50000500000E+01  0.50000000000E+01 0.  1.
</event>
<event>
 4    1  0.4993983E-021  0.5000050E+01  0.7818608E-02  0.2136455E+00
        -11   -1    0    0    0    0  0.00000000000E+00  0.00000000000E+00  0.50000499739E+01  0.50000500000E+01  0.51100000000E-03 0.  1.
         11   -1    0    0    0    0 -0.00000000000E+00 -0.00000000000E+00 -0.50000499739E+01  0.50000500000E+01  0.51100000000E-03 0. -1.
         50    1    1    2    0    0 -0.66987905320E-02  0.19399609330E-01  0.88760274473E-02  0.50000500000E+01  0.50000000000E+01 0.  0.
         50    1    1    2    0    0  0.66987905320E-02 -0.19399609330E-01 -0.88760274473E-02  0.50000500000E+01  0.50000000000E+01 0.  0.
</event>
<event>
 4    1  0.4993983E-021  0.5000050E+01  0.7818608E-02  0.2136455E+00
        -11   -1    0    0    0    0  0.00000000000E+00  0.00000000000E+00  0.50000499739E+01  0.50000500000E+01  0.51100000000E-03 0.  1.
         11   -1    0    0    0    0 -0.00000000000E+00 -0.00000000000E+00 -0.50000499739E+01  0.50000500000E+01  0.51100000000E-03 0. -1.
         50    1    1    2    0    0 -0.20519749996E-01 -0.75064595146E-02 -0.47534645946E-02  0.50000500000E+01  0.50000000000E+01 0.  0.
         50    1    1    2    0    0  0.20519749996E-01  0.75064595146E-02  0.47534645946E-02  0.50000500000E+01  0.50000000000E+01 0.  1.
</event>
<event>
 4    1  0.4993983E-021  0.5000050E+01  0.7818608E-02  0.2136455E+00
        -11   -1    0    0    0    0  0.00000000000E+00  0.00000000000E+00  0.50000499739E+01  0.50000500000E+01  0.51100000000E-03 0.  1.
         11   -1    0    0    0    0 -0.00000000000E+00 -0.00000000000E+00 -0.50000499739E+01  0.50000500000E+01  0.51100000000E-03 0. -1.
         50    1    1    2    0    0 -0.46122231847E-02 -0.10058565690E-01  0.19430778511E-01  0.50000500000E+01  0.50000000000E+01 0.  1.
         50    1    1    2    0    0  0.46122231847E-02  0.10058565690E-01 -0.19430778511E-01  0.50000500000E+01  0.50000000000E+01 0. -1.
</event>
<event>
 4    1  0.4993983E-021  0.5000050E+01  0.7818608E-02  0.2136455E+00
        -11   -1    0    0    0    0  0.00000000000E+00  0.00000000000E+00  0.50000499739E+01  0.50000500000E+01  0.51100000000E-03 0.  1.
         11   -1    0    0    0    0 -0.00000000000E+00 -0.00000000000E+00 -0.50000499739E+01  0.50000500000E+01  0.51100000000E-03 0. -1.
         50    1    1    2    0    0 -0.11445847503E-01  0.10328849541E-01  0.16195985370E-01  0.50000500000E+01  0.50000000000E+01 0.  1.
         50    1    1    2    0    0  0.11445847503E-01 -0.10328849541E-01 -0.16195985370E-01  0.50000500000E+01  0.50000000000E+01 0. -1.
</event>
<event>
 4    1  0.4993983E-021  0.5000050E+01  0.7818608E-02  0.2136455E+00
        -11   -1    0    0    0    0  0.00000000000E+00  0.00000000000E+00  0.50000499739E+01  0.50000500000E+01  0.51100000000E-03 0. -1.
         11   -1    0    0    0    0 -0.00000000000E+00 -0.00000000000E+00 -0.50000499739E+01  0.50000500000E+01  0.51100000000E-03 0.  1.
         50    1    1    2    0    0 -0.11374086515E-01  0.92570820583E-02 -0.16880138853E-01  0.50000500000E+01  0.50000000000E+01 0.  0.
         50    1    1    2    0    0  0.11374086515E-01 -0.92570820583E-02  0.16880138853E-01  0.50000500000E+01  0.50000000000E+01 0.  0.
</event>
<event>
 4    1  0.4993983E-021  0.5000050E+01  0.7818608E-02  0.2136455E+00
        -11   -1    0    0    0    0  0.00000000000E+00  0.00000000000E+00  0.50000499739E+01  0.50000500000E+01  0.51100000000E-03 0.  1.
         11   -1    0    0    0    0 -0.00000000000E+00 -0.00000000000E+00 -0.50000499739E+01  0.50000500000E+01  0.51100000000E-03 0. -1.
         50    1    1    2    0    0  0.11501646036E-02  0.21358666478E-01 -0.65182043271E-02  0.50000500000E+01  0.50000000000E+01 0.  0.
         50    1    1    2    0    0 -0.11501646036E-02 -0.21358666478E-01  0.65182043271E-02  0.50000500000E+01  0.50000000000E+01 0. -1.
</event>
<event>
 4    1  0.4993983E-021  0.5000050E+01  0.7818608E-02  0.2136455E+00
        -11   -1    0    0    0    0  0.00000000000E+00  0.00000000000E+00  0.50000499739E+01  0.50000500000E+01  0.51100000000E-03 0.  1.
         11   -1    0    0    0    0 -0.00000000000E+00 -0.00000000000E+00 -0.50000499739E+01  0.50000500000E+01  0.51100000000E-03 0. -1.
         50    1    1    2    0    0  0.15812695047E-01 -0.14271025978E-01 -0.68043363294E-02  0.50000500000E+01  0.50000000000E+01 0. -1.
         50    1    1    2    0    0 -0.15812695047E-01  0.14271025978E-01  0.68043363294E-02  0.50000500000E+01  0.50000000000E+01 0. -1.
</event>
<event>
 4    1  0.4993983E-021  0.5000050E+01  0.7818608E-02  0.2136455E+00
        -11   -1    0    0    0    0  0.00000000000E+00  0.00000000000E+00  0.50000499739E+01  0.50000500000E+01  0.51100000000E-03 0. -1.
         11   -1    0    0    0    0 -0.00000000000E+00 -0.00000000000E+00 -0.50000499739E+01  0.50000500000E+01  0.51100000000E-03 0.  1.
         50    1    1    2    0    0 -0.83182111406E-02  0.17414701583E-01  0.11293273759E-01  0.50000500000E+01  0.50000000000E+01 0.  0.
         50    1    1    2    0    0  0.83182111406E-02 -0.17414701583E-01 -0.11293273759E-01  0.50000500000E+01  0.50000000000E+01 0.  0.
</event>
<event>
 4    1  0.4993983E-021  0.5000050E+01  0.7818608E-02  0.2136455E+00
        -11   -1    0    0    0    0  0.00000000000E+00  0.00000000000E+00  0.50000499739E+01  0.50000500000E+01  0.51100000000E-03 0. -1.
         11   -1    0    0    0    0 -0.00000000000E+00 -0.00000000000E+00 -0.50000499739E+01  0.50000500000E+01  0.51100000000E-03 0.  1.
         50    1    1    2    0    0  0.10503597479E-01  0.80345487890E-02  0.18031166511E-01  0.50000500000E+01  0.50000000000E+01 0. -1.
         50    1    1    2    0    0 -0.10503597479E-01 -0.80345487890E-02 -0.18031166511E-01  0.50000500000E+01  0.50000000000E+01 0.  0.
</event>
<event>
 4    1  0.4993983E-021  0.5000050E+01  0.7818608E-02  0.2136455E+00
        -11   -1    0    0    0    0  0.00000000000E+00  0.00000000000E+00  0.50000499739E+01  0.50000500000E+01  0.51100000000E-03 0. -1.
         11   -1    0    0    0    0 -0.00000000000E+00 -0.00000000000E+00 -0.50000499739E+01  0.50000500000E+01  0.51100000000E-03 0.  1.
         50    1    1    2    0    0 -0.87009342367E-02  0.20184709503E-01  0.41077665060E-02  0.50000500000E+01  0.50000000000E+01 0. -1.
         50    1    1    2    0    0  0.87009342367E-02 -0.20184709503E-01 -0.41077665060E-02  0.50000500000E+01  0.50000000000E+01 0.  1.
</event>
<event>
 4    1  0.4993983E-021  0.5000050E+01  0.7818608E-02  0.2136455E+00
        -11   -1    0    0    0    0  0.00000000000E+00  0.00000000000E+00  0.50000499739E+01  0.50000500000E+01  0.51100000000E-03 0. -1.
         11   -1    0    0    0    0 -0.00000000000E+00 -0.00000000000E+00 -0.50000499739E+01  0.50000500000E+01  0.51100000000E-03 0.  1.
         50    1    1    2    0    0  0.15388499677E-01 -0.16089344330E-01 -0.20807634956E-02  0.50000500000E+01  0.50000000000E+01 0.  1.
         50    1    1    2    0    0 -0.15388499677E-01  0.16089344330E-01  0.20807634956E-02  0.50000500000E+01  0.50000000000E+01 0. -1.
</event>
<event>
 4    1  0.4993983E-021  0.5000050E+01  0.7818608E-02  0.2136455E+00
        -11   -1    0    0    0    0  0.00000000000E+00  0.00000000000E+00  0.50000499739E+01  0.50000500000E+01  0.51100000000E-03 0. -1.
         11   -1    0    0    0    0 -0.00000000000E+00 -0.00000000000E+00 -0.50000499739E+01  0.50000500000E+01  0.51100000000E-03 0.  1.
         50    1    1    2    0    0 -0.61851630700E-02 -0.21441866353E-01 -0.14116037369E-02  0.50000500000E+01  0.50000000000E+01 0.  1.
         50    1    1    2    0    0  0.61851630700E-02  0.21441866353E-01  0.14116037369E-02  0.50000500000E+01  0.50000000000E+01 0. -1.
</event>
<event>
 4    1  0.4993983E-021  0.5000050E+01  0.7818608E-02  0.2136455E+00
        -11   -1    0    0    0    0  0.00000000000E+00  0.00000000000E+00  0.50000499739E+01  0.50000500000E+01  0.51100000000E-03 0. -1.
         11   -1    0    0    0    0 -0.00000000000E+00 -0.00000000000E+00 -0.50000499739E+01  0.50000500000E+01  0.51100000000E-03 0.  1.
         50    1    1    2    0    0 -0.15277394449E-01  0.84039205572E-02 -0.13999208481E-01  0.50000500000E+01  0.50000000000E+01 0.  0.
         50    1    1    2    0    0  0.15277394449E-01 -0.84039205572E-02  0.13999208481E-01  0.50000500000E+01  0.50000000000E+01 0.  1.
</event>
<event>
 4    1  0.4993983E-021  0.5000050E+01  0.7818608E-02  0.2136455E+00
        -11   -1    0    0    0    0  0.00000000000E+00  0.00000000000E+00  0.50000499739E+01  0.50000500000E+01  0.51100000000E-03 0. -1.
         11   -1    0    0    0    0 -0.00000000000E+00 -0.00000000000E+00 -0.50000499739E+01  0.50000500000E+01  0.51100000000E-03 0.  1.
         50    1    1    2    0    0 -0.13554081235E-01 -0.86118876117E-02  0.15560359046E-01  0.50000500000E+01  0.50000000000E+01 0.  0.
         50    1    1    2    0    0  0.13554081235E-01  0.86118876117E-02 -0.15560359046E-01  0.50000500000E+01  0.50000000000E+01 0.  0.
</event>
<event>
 4    1  0.4993983E-021  0.5000050E+01  0.7818608E-02  0.2136455E+00
        -11   -1    0    0    0    0  0.00000000000E+00  0.00000000000E+00  0.50000499739E+01  0.50000500000E+01  0.51100000000E-03 0. -1.
         11   -1    0    0    0    0 -0.00000000000E+00 -0.00000000000E+00 -0.50000499739E+01  0.50000500000E+01  0.51100000000E-03 0.  1.
         50    1    1    2    0    0 -0.21507560975E-01 -0.26938528152E-03  0.61118534402E-02  0.50000500000E+01  0.50000000000E+01 0.  0.
         50    1    1    2    0    0  0.21507560975E-01  0.26938528152E-03 -0.61118534402E-02  0.50000500000E+01  0.50000000000E+01 0. -1.
</event>
<event>
 4    1  0.4993983E-021  0.5000050E+01  0.7818608E-02  0.2136455E+00
        -11   -1    0    0    0    0  0.00000000000E+00  0.00000000000E+00  0.50000499739E+01  0.50000500000E+01  0.51100000000E-03 0. -1.
         11   -1    0    0    0    0 -0.00000000000E+00 -0.00000000000E+00 -0.50000499739E+01  0.50000500000E+01  0.51100000000E-03 0.  1.
         50    1    1    2    0    0  0.33047229463E-02  0.21794252420E-01  0.37539136485E-02  0.50000500000E+01  0.50000000000E+01 0.  0.
         50    1    1    2    0    0 -0.33047229463E-02 -0.21794252420E-01 -0.37539136485E-02  0.50000500000E+01  0.50000000000E+01 0.  0.
</event>
<event>
 4    1  0.4993983E-021  0.5000050E+01  0.7818608E-02  0.2136455E+00
        -11   -1    0    0    0    0  0.00000000000E+00  0.00000000000E+00  0.50000499739E+01  0.50000500000E+01  0.51100000000E-03 0. -1.
         11   -1    0    0    0    0 -0.00000000000E+00 -0.00000000000E+00 -0.50000499739E+01  0.50000500000E+01  0.51100000000E-03 0.  1.
         50    1    1    2    0    0 -0.12685612778E-01 -0.14393660004E-01  0.11484784723E-01  0.50000500000E+01  0.50000000000E+01 0.  0.
         50    1    1    2    0    0  0.12685612778E-01  0.14393660004E-01 -0.11484784723E-01  0.50000500000E+01  0.50000000000E+01 0.  0.
</event>
<event>
 4    1  0.4993983E-021  0.5000050E+01  0.7818608E-02  0.2136455E+00
        -11   -1    0    0    0    0  0.00000000000E+00  0.00000000000E+00  0.50000499739E+01  0.50000500000E+01  0.51100000000E-03 0. -1.
         11   -1    0    0    0    0 -0.00000000000E+00 -0.00000000000E+00 -0.50000499739E+01  0.50000500000E+01  0.51100000000E-03 0.  1.
         50    1    1    2    0    0  0.18902434508E-02  0.22213384837E-01  0.17306108071E-02  0.50000500000E+01  0.50000000000E+01 0. -1.
         50    1    1    2    0    0 -0.18902434508E-02 -0.22213384837E-01 -0.17306108071E-02  0.50000500000E+01  0.50000000000E+01 0.  1.
</event>
<event>
 4    1  0.4993983E-021  0.5000050E+01  0.7818608E-02  0.2136455E+00
        -11   -1    0    0    0    0  0.00000000000E+00  0.00000000000E+00  0.50000499739E+01  0.50000500000E+01  0.51100000000E-03 0. -1.
         11   -1    0    0    0    0 -0.00000000000E+00 -0.00000000000E+00 -0.50000499739E+01  0.50000500000E+01  0.51100000000E-03 0.  1.
         50    1    1    2    0    0  0.69791290389E-02  0.16002685006E-01 -0.13971697479E-01  0.50000500000E+01  0.50000000000E+01 0.  1.
         50    1    1    2    0    0 -0.69791290389E-02 -0.16002685006E-01  0.13971697479E-01  0.50000500000E+01  0.50000000000E+01 0. -1.
</event>
<event>
 4    1  0.4993983E-021  0.5000050E+01  0.7818608E-02  0.2136455E+00
        -11   -1    0    0    0    0  0.00000000000E+00  0.00000000000E+00  0.50000499739E+01  0.50000500000E+01  0.51100000000E-03 0.  1.
         11   -1    0    0    0    0 -0.00000000000E+00 -0.00000000000E+00 -0.50000499739E+01  0.50000500000E+01  0.51100000000E-03 0. -1.
         50    1    1    2    0    0 -0.57756535806E-02  0.51899808710E-02  0.20969225648E-01  0.50000500000E+01  0.50000000000E+01 0.  1.
         50    1    1    2    0    0  0.57756535806E-02 -0.51899808710E-02 -0.20969225648E-01  0.50000500000E+01  0.50000000000E+01 0.  0.
</event>
<event>
 4    1  0.4993983E-021  0.5000050E+01  0.7818608E-02  0.2136455E+00
        -11   -1    0    0    0    0  0.00000000000E+00  0.00000000000E+00  0.50000499739E+01  0.50000500000E+01  0.51100000000E-03 0. -1.
         11   -1    0    0    0    0 -0.00000000000E+00 -0.00000000000E+00 -0.50000499739E+01  0.50000500000E+01  0.51100000000E-03 0.  1.
         50    1    1    2    0    0  0.16460019374E-01  0.12564335908E-01 -0.84384670062E-02  0.50000500000E+01  0.50000000000E+01 0.  0.
         50    1    1    2    0    0 -0.16460019374E-01 -0.12564335908E-01  0.84384670062E-02  0.50000500000E+01  0.50000000000E+01 0.  1.
</event>
<event>
 4    1  0.4993983E-021  0.5000050E+01  0.7818608E-02  0.2136455E+00
        -11   -1    0    0    0    0  0.00000000000E+00  0.00000000000E+00  0.50000499739E+01  0.50000500000E+01  0.51100000000E-03 0.  1.
         11   -1    0    0    0    0 -0.00000000000E+00 -0.00000000000E+00 -0.50000499739E+01  0.50000500000E+01  0.51100000000E-03 0. -1.
         50    1    1    2    0    0 -0.12994696874E-01  0.18136814460E-01  0.14819967622E-02  0.50000500000E+01  0.50000000000E+01 0.  1.
         50    1    1    2    0    0  0.12994696874E-01 -0.18136814460E-01 -0.14819967622E-02  0.50000500000E+01  0.50000000000E+01 0. -1.
</event>
<event>
 4    1  0.4993983E-021  0.5000050E+01  0.7818608E-02  0.2136455E+00
        -11   -1    0    0    0    0  0.00000000000E+00  0.00000000000E+00  0.50000499739E+01  0.50000500000E+01  0.51100000000E-03 0. -1.
         11   -1    0    0    0    0 -0.00000000000E+00 -0.00000000000E+00 -0.50000499739E+01  0.50000500000E+01  0.51100000000E-03 0.  1.
         50    1    1    2    0    0  0.32237463587E-03 -0.14080500703E-01  0.17367730841E-01  0.50000500000E+01  0.50000000000E+01 0. -1.
         50    1    1    2    0    0 -0.32237463587E-03  0.14080500703E-01 -0.17367730841E-01  0.50000500000E+01  0.50000000000E+01 0.  1.
</event>
<event>
 4    1  0.4993983E-021  0.5000050E+01  0.7818608E-02  0.2136455E+00
        -11   -1    0    0    0    0  0.00000000000E+00  0.00000000000E+00  0.50000499739E+01  0.50000500000E+01  0.51100000000E-03 0. -1.
         11   -1    0    0    0    0 -0.00000000000E+00 -0.00000000000E+00 -0.50000499739E+01  0.50000500000E+01  0.51100000000E-03 0.  1.
         50    1    1    2    0    0  0.18341747191E-01  0.22591051052E-02 -0.12588854360E-01  0.50000500000E+01  0.50000000000E+01 0.  0.
         50    1    1    2    0    0 -0.18341747191E-01 -0.22591051052E-02  0.12588854360E-01  0.50000500000E+01  0.50000000000E+01 0.  1.
</event>
<event>
 4    1  0.4993983E-021  0.5000050E+01  0.7818608E-02  0.2136455E+00
        -11   -1    0    0    0    0  0.00000000000E+00  0.00000000000E+00  0.50000499739E+01  0.50000500000E+01  0.51100000000E-03 0. -1.
         11   -1    0    0    0    0 -0.00000000000E+00 -0.00000000000E+00 -0.50000499739E+01  0.50000500000E+01  0.51100000000E-03 0.  1.
         50    1    1    2    0    0 -0.18899786240E-01  0.88272148452E-02  0.80548654954E-02  0.50000500000E+01  0.50000000000E+01 0. -1.
         50    1    1    2    0    0  0.18899786240E-01 -0.88272148452E-02 -0.80548654954E-02  0.50000500000E+01  0.50000000000E+01 0.  1.
</event>
<event>
 4    1  0.4993983E-021  0.5000050E+01  0.7818608E-02  0.2136455E+00
        -11   -1    0    0    0    0  0.00000000000E+00  0.00000000000E+00  0.50000499739E+01  0.50000500000E+01  0.51100000000E-03 0. -1.
         11   -1    0    0    0    0 -0.00000000000E+00 -0.00000000000E+00 -0.50000499739E+01  0.50000500000E+01  0.51100000000E-03 0.  1.
         50    1    1    2    0    0  0.92531196003E-02  0.13359437078E-01 -0.15359287699E-01  0.50000500000E+01  0.50000000000E+01 0.  0.
         50    1    1    2    0    0 -0.92531196003E-02 -0.13359437078E-01  0.15359287699E-01  0.50000500000E+01  0.50000000000E+01 0.  0.
</event>
<event>
 4    1  0.4993983E-021  0.5000050E+01  0.7818608E-02  0.2136455E+00
        -11   -1    0    0    0    0  0.00000000000E+00  0.00000000000E+00  0.50000499739E+01  0.50000500000E+01  0.51100000000E-03 0. -1.
         11   -1    0    0    0    0 -0.00000000000E+00 -0.00000000000E+00 -0.50000499739E+01  0.50000500000E+01  0.51100000000E-03 0.  1.
         50    1    1    2    0    0  0.20565058826E-01  0.67818624922E-03 -0.87533375854E-02  0.50000500000E+01  0.50000000000E+01 0. -1.
         50    1    1    2    0    0 -0.20565058826E-01 -0.67818624922E-03  0.87533375854E-02  0.50000500000E+01  0.50000000000E+01 0.  0.
</event>
<event>
 4    1  0.4993983E-021  0.5000050E+01  0.7818608E-02  0.2136455E+00
        -11   -1    0    0    0    0  0.00000000000E+00  0.00000000000E+00  0.50000499739E+01  0.50000500000E+01  0.51100000000E-03 0.  1.
         11   -1    0    0    0    0 -0.00000000000E+00 -0.00000000000E+00 -0.50000499739E+01  0.50000500000E+01  0.51100000000E-03 0. -1.
         50    1    1    2    0    0  0.86685365094E-02  0.11029340694E-01  0.17413001425E-01  0.50000500000E+01  0.50000000000E+01 0. -1.
         50    1    1    2    0    0 -0.86685365094E-02 -0.11029340694E-01 -0.17413001425E-01  0.50000500000E+01  0.50000000000E+01 0. -1.
</event>
<event>
 4    1  0.4993983E-021  0.5000050E+01  0.7818608E-02  0.2136455E+00
        -11   -1    0    0    0    0  0.00000000000E+00  0.00000000000E+00  0.50000499739E+01  0.50000500000E+01  0.51100000000E-03 0.  1.
         11   -1    0    0    0    0 -0.00000000000E+00 -0.00000000000E+00 -0.50000499739E+01  0.50000500000E+01  0.51100000000E-03 0. -1.
         50    1    1    2    0    0  0.85347465558E-02  0.36154447432E-02  0.20349180832E-01  0.50000500000E+01  0.50000000000E+01 0.  1.
         50    1    1    2    0    0 -0.85347465558E-02 -0.36154447432E-02 -0.20349180832E-01  0.50000500000E+01  0.50000000000E+01 0. -1.
</event>
<event>
 4    1  0.4993983E-021  0.5000050E+01  0.7818608E-02  0.2136455E+00
        -11   -1    0    0    0    0  0.00000000000E+00  0.00000000000E+00  0.50000499739E+01  0.50000500000E+01  0.51100000000E-03 0. -1.
         11   -1    0    0    0    0 -0.00000000000E+00 -0.00000000000E+00 -0.50000499739E+01  0.50000500000E+01  0.51100000000E-03 0.  1.
         50    1    1    2    0    0  0.63492569168E-02 -0.20927228299E-01  0.46626765204E-02  0.50000500000E+01  0.50000000000E+01 0.  1.
         50    1    1    2    0    0 -0.63492569168E-02  0.20927228299E-01 -0.46626765204E-02  0.50000500000E+01  0.50000000000E+01 0. -1.
</event>
<event>
 4    1  0.4993983E-021  0.5000050E+01  0.7818608E-02  0.2136455E+00
        -11   -1    0    0    0    0  0.00000000000E+00  0.00000000000E+00  0.50000499739E+01  0.50000500000E+01  0.51100000000E-03 0. -1.
         11   -1    0    0    0    0 -0.00000000000E+00 -0.00000000000E+00 -0.50000499739E+01  0.50000500000E+01  0.51100000000E-03 0.  1.
         50    1    1    2    0    0  0.11612210820E-01  0.17733757759E-01  0.71184897001E-02  0.50000500000E+01  0.50000000000E+01 0. -1.
         50    1    1    2    0    0 -0.11612210820E-01 -0.17733757759E-01 -0.71184897001E-02  0.50000500000E+01  0.50000000000E+01 0.  1.
</event>
<event>
 4    1  0.4993983E-021  0.5000050E+01  0.7818608E-02  0.2136455E+00
        -11   -1    0    0    0    0  0.00000000000E+00  0.00000000000E+00  0.50000499739E+01  0.50000500000E+01  0.51100000000E-03 0. -1.
         11   -1    0    0    0    0 -0.00000000000E+00 -0.00000000000E+00 -0.50000499739E+01  0.50000500000E+01  0.51100000000E-03 0.  1.
         50    1    1    2    0    0  0.38885139777E-02 -0.12631430803E-01  0.18036876528E-01  0.50000500000E+01  0.50000000000E+01 0.  0.
         50    1    1    2    0    0 -0.38885139777E-02  0.12631430803E-01 -0.18036876528E-01  0.50000500000E+01  0.50000000000E+01 0.  0.
</event>
<event>
 4    1  0.4993983E-021  0.5000050E+01  0.7818608E-02  0.2136455E+00
        -11   -1    0    0    0    0  0.00000000000E+00  0.00000000000E+00  0.50000499739E+01  0.50000500000E+01  0.51100000000E-03 0. -1.
         11   -1    0    0    0    0 -0.00000000000E+00 -0.00000000000E+00 -0.50000499739E+01  0.50000500000E+01  0.51100000000E-03 0.  1.
         50    1    1    2    0    0 -0.12804425216E-01 -0.69493507774E-02 -0.16963364014E-01  0.50000500000E+01  0.50000000000E+01 0. -1.
         50    1    1    2    0    0  0.12804425216E-01  0.69493507774E-02  0.16963364014E-01  0.50000500000E+01  0.50000000000E+01 0.  0.
</event>
<event>
 4    1  0.4993983E-021  0.5000050E+01  0.7818608E-02  0.2136455E+00
        -11   -1    0    0    0    0  0.00000000000E+00  0.00000000000E+00  0.50000499739E+01  0.50000500000E+01  0.51100000000E-03 0. -1.
         11   -1    0    0    0    0 -0.00000000000E+00 -0.00000000000E+00 -0.50000499739E+01  0.50000500000E+01  0.51100000000E-03 0.  1.
         50    1    1    2    0    0 -0.21854745223E-01  0.56838221782E-03  0.46956951465E-02  0.50000500000E+01  0.50000000000E+01 0. -1.
         50    1    1    2    0    0  0.21854745223E-01 -0.56838221782E-03 -0.46956951465E-02  0.50000500000E+01  0.50000000000E+01 0.  0.
</event>
<event>
 4    1  0.4993983E-021  0.5000050E+01  0.7818608E-02  0.2136455E+00
        -11   -1    0    0    0    0  0.00000000000E+00  0.00000000000E+00  0.50000499739E+01  0.50000500000E+01  0.51100000000E-03 0.  1.
         11   -1    0    0    0    0 -0.00000000000E+00 -0.00000000000E+00 -0.50000499739E+01  0.50000500000E+01  0.51100000000E-03 0. -1.
         50    1    1    2    0    0 -0.97164026950E-02  0.19506898370E-01 -0.50074878577E-02  0.50000500000E+01  0.50000000000E+01 0.  1.
         50    1    1    2    0    0  0.97164026950E-02 -0.19506898370E-01  0.50074878577E-02  0.50000500000E+01  0.50000000000E+01 0. -1.
</event>
<event>
 4    1  0.4993983E-021  0.5000050E+01  0.7818608E-02  0.2136455E+00
        -11   -1    0    0    0    0  0.00000000000E+00  0.00000000000E+00  0.50000499739E+01  0.50000500000E+01  0.51100000000E-03 0. -1.
         11   -1    0    0    0    0 -0.00000000000E+00 -0.00000000000E+00 -0.50000499739E+01  0.50000500000E+01  0.51100000000E-03 0.  1.
         50    1    1    2    0    0 -0.96129561682E-02  0.74438215015E-02 -0.18766541907E-01  0.50000500000E+01  0.50000000000E+01 0.  1.
         50    1    1    2    0    0  0.96129561682E-02 -0.74438215015E-02  0.18766541907E-01  0.50000500000E+01  0.50000000000E+01 0. -1.
</event>
<event>
 4    1  0.4993983E-021  0.5000050E+01  0.7818608E-02  0.2136455E+00
        -11   -1    0    0    0    0  0.00000000000E+00  0.00000000000E+00  0.50000499739E+01  0.50000500000E+01  0.51100000000E-03 0. -1.
         11   -1    0    0    0    0 -0.00000000000E+00 -0.00000000000E+00 -0.50000499739E+01  0.50000500000E+01  0.51100000000E-03 0.  1.
         50    1    1    2    0    0  0.17344026510E-01  0.39795015163E-03  0.14107759571E-01  0.50000500000E+01  0.50000000000E+01 0. -1.
         50    1    1    2    0    0 -0.17344026510E-01 -0.39795015163E-03 -0.14107759571E-01  0.50000500000E+01  0.50000000000E+01 0.  1.
</event>
<event>
 4    1  0.4993983E-021  0.5000050E+01  0.7818608E-02  0.2136455E+00
        -11   -1    0    0    0    0  0.00000000000E+00  0.00000000000E+00  0.50000499739E+01  0.50000500000E+01  0.51100000000E-03 0.  1.
         11   -1    0    0    0    0 -0.00000000000E+00 -0.00000000000E+00 -0.50000499739E+01  0.50000500000E+01  0.51100000000E-03 0. -1.
         50    1    1    2    0    0  0.12450865827E-01  0.17201307142E-01  0.70066734458E-02  0.50000500000E+01  0.50000000000E+01 0. -1.
         50    1    1    2    0    0 -0.12450865827E-01 -0.17201307142E-01 -0.70066734458E-02  0.50000500000E+01  0.50000000000E+01 0.  0.
</event>
<event>
 4    1  0.4993983E-021  0.5000050E+01  0.7818608E-02  0.2136455E+00
        -11   -1    0    0    0    0  0.00000000000E+00  0.00000000000E+00  0.50000499739E+01  0.50000500000E+01  0.51100000000E-03 0. -1.
         11   -1    0    0    0    0 -0.00000000000E+00 -0.00000000000E+00 -0.50000499739E+01  0.50000500000E+01  0.51100000000E-03 0.  1.
         50    1    1    2    0    0 -0.18396648201E-02  0.23095650035E-02  0.22164928216E-01  0.50000500000E+01  0.50000000000E+01 0.  0.
         50    1    1    2    0    0  0.18396648201E-02 -0.23095650035E-02 -0.22164928216E-01  0.50000500000E+01  0.50000000000E+01 0.  0.
</event>
<event>
 4    1  0.4993983E-021  0.5000050E+01  0.7818608E-02  0.2136455E+00
        -11   -1    0    0    0    0  0.00000000000E+00  0.00000000000E+00  0.50000499739E+01  0.50000500000E+01  0.51100000000E-03 0. -1.
         11   -1    0    0    0    0 -0.00000000000E+00 -0.00000000000E+00 -0.50000499739E+01  0.50000500000E+01  0.51100000000E-03 0.  1.
         50    1    1    2    0    0 -0.13096749837E-01 -0.14225112317E-01 -0.11230486333E-01  0.50000500000E+01  0.50000000000E+01 0.  1.
         50    1    1    2    0    0  0.13096749837E-01  0.14225112317E-01  0.11230486333E-01  0.50000500000E+01  0.50000000000E+01 0. -1.
</event>
<event>
 4    1  0.4993983E-021  0.5000050E+01  0.7818608E-02  0.2136455E+00
        -11   -1    0    0    0    0  0.00000000000E+00  0.00000000000E+00  0.50000499739E+01  0.50000500000E+01  0.51100000000E-03 0. -1.
         11   -1    0    0    0    0 -0.00000000000E+00 -0.00000000000E+00 -0.50000499739E+01  0.50000500000E+01  0.51100000000E-03 0.  1.
         50    1    1    2    0    0  0.19536267682E-01 -0.98390849234E-02 -0.46399518226E-02  0.50000500000E+01  0.50000000000E+01 0. -1.
         50    1    1    2    0    0 -0.19536267682E-01  0.98390849234E-02  0.46399518226E-02  0.50000500000E+01  0.50000000000E+01 0.  0.
</event>
<event>
 4    1  0.4993983E-021  0.5000050E+01  0.7818608E-02  0.2136455E+00
        -11   -1    0    0    0    0  0.00000000000E+00  0.00000000000E+00  0.50000499739E+01  0.50000500000E+01  0.51100000000E-03 0.  1.
         11   -1    0    0    0    0 -0.00000000000E+00 -0.00000000000E+00 -0.50000499739E+01  0.50000500000E+01  0.51100000000E-03 0. -1.
         50    1    1    2    0    0 -0.16032176457E-01  0.27066086278E-02  0.15350768313E-01  0.50000500000E+01  0.50000000000E+01 0.  1.
         50    1    1    2    0    0  0.16032176457E-01 -0.27066086278E-02 -0.15350768313E-01  0.50000500000E+01  0.50000000000E+01 0. -1.
</event>
<event>
 4    1  0.4993983E-021  0.5000050E+01  0.7818608E-02  0.2136455E+00
        -11   -1    0    0    0    0  0.00000000000E+00  0.00000000000E+00  0.50000499739E+01  0.50000500000E+01  0.51100000000E-03 0. -1.
         11   -1    0    0    0    0 -0.00000000000E+00 -0.00000000000E+00 -0.50000499739E+01  0.50000500000E+01  0.51100000000E-03 0.  1.
         50    1    1    2    0    0  0.18434395102E-01 -0.80364283793E-03 -0.12630508121E-01  0.50000500000E+01  0.50000000000E+01 0.  1.
         50    1    1    2    0    0 -0.18434395102E-01  0.80364283793E-03  0.12630508121E-01  0.50000500000E+01  0.50000000000E+01 0.  1.
</event>
<event>
 4    1  0.4993983E-021  0.5000050E+01  0.7818608E-02  0.2136455E+00
        -11   -1    0    0    0    0  0.00000000000E+00  0.00000000000E+00  0.50000499739E+01  0.50000500000E+01  0.51100000000E-03 0. -1.
         11   -1    0    0    0    0 -0.00000000000E+00 -0.00000000000E+00 -0.50000499739E+01  0.50000500000E+01  0.51100000000E-03 0.  1.
         50    1    1    2    0    0  0.72442120707E-02  0.15651634498E-01 -0.14232014229E-01  0.50000500000E+01  0.50000000000E+01 0.  1.
         50    1    1    2    0    0 -0.72442120707E-02 -0.15651634498E-01  0.14232014229E-01  0.50000500000E+01  0.50000000000E+01 0.  1.
</event>
<event>
 4    1  0.4993983E-021  0.5000050E+01  0.7818608E-02  0.2136455E+00
        -11   -1    0    0    0    0  0.00000000000E+00  0.00000000000E+00  0.50000499739E+01  0.50000500000E+01  0.51100000000E-03 0.  1.
         11   -1    0    0    0    0 -0.00000000000E+00 -0.00000000000E+00 -0.50000499739E+01  0.50000500000E+01  0.51100000000E-03 0. -1.
         50    1    1    2    0    0  0.57923548724E-02  0.14036593963E-02 -0.21551818144E-01  0.50000500000E+01  0.50000000000E+01 0. -1.
         50    1    1    2    0    0 -0.57923548724E-02 -0.14036593963E-02  0.21551818144E-01  0.50000500000E+01  0.50000000000E+01 0.  1.
</event>
<event>
 4    1  0.4993983E-021  0.5000050E+01  0.7818608E-02  0.2136455E+00
        -11   -1    0    0    0    0  0.00000000000E+00  0.00000000000E+00  0.50000499739E+01  0.50000500000E+01  0.51100000000E-03 0. -1.
         11   -1    0    0    0    0 -0.00000000000E+00 -0.00000000000E+00 -0.50000499739E+01  0.50000500000E+01  0.51100000000E-03 0.  1.
         50    1    1    2    0    0  0.15359514179E-02  0.16603604143E-01  0.14898445647E-01  0.50000500000E+01  0.50000000000E+01 0.  0.
         50    1    1    2    0    0 -0.15359514179E-02 -0.16603604143E-01 -0.14898445647E-01  0.50000500000E+01  0.50000000000E+01 0. -1.
</event>
<event>
 4    1  0.4993983E-021  0.5000050E+01  0.7818608E-02  0.2136455E+00
        -11   -1    0    0    0    0  0.00000000000E+00  0.00000000000E+00  0.50000499739E+01  0.50000500000E+01  0.51100000000E-03 0.  1.
         11   -1    0    0    0    0 -0.00000000000E+00 -0.00000000000E+00 -0.50000499739E+01  0.50000500000E+01  0.51100000000E-03 0. -1.
         50    1    1    2    0    0 -0.94170180496E-02  0.16603190215E-01 -0.11647160414E-01  0.50000500000E+01  0.50000000000E+01 0.  0.
         50    1    1    2    0    0  0.94170180496E-02 -0.16603190215E-01  0.11647160414E-01  0.50000500000E+01  0.50000000000E+01 0.  0.
</event>
<event>
 4    1  0.4993983E-021  0.5000050E+01  0.7818608E-02  0.2136455E+00
        -11   -1    0    0    0    0  0.00000000000E+00  0.00000000000E+00  0.50000499739E+01  0.50000500000E+01  0.51100000000E-03 0.  1.
         11   -1    0    0    0    0 -0.00000000000E+00 -0.00000000000E+00 -0.50000499739E+01  0.50000500000E+01  0.51100000000E-03 0. -1.
         50    1    1    2    0    0  0.61770217565E-02 -0.10790025171E-01  0.18585538976E-01  0.50000500000E+01  0.50000000000E+01 0.  1.
         50    1    1    2    0    0 -0.61770217565E-02  0.10790025171E-01 -0.18585538976E-01  0.50000500000E+01  0.50000000000E+01 0. -1.
</event>
<event>
 4    1  0.4993983E-021  0.5000050E+01  0.7818608E-02  0.2136455E+00
        -11   -1    0    0    0    0  0.00000000000E+00  0.00000000000E+00  0.50000499739E+01  0.50000500000E+01  0.51100000000E-03 0.  1.
         11   -1    0    0    0    0 -0.00000000000E+00 -0.00000000000E+00 -0.50000499739E+01  0.50000500000E+01  0.51100000000E-03 0. -1.
         50    1    1    2    0    0 -0.15587596476E-01 -0.47852621537E-02 -0.15301326813E-01  0.50000500000E+01  0.50000000000E+01 0.  0.
         50    1    1    2    0    0  0.15587596476E-01  0.47852621537E-02  0.15301326813E-01  0.50000500000E+01  0.50000000000E+01 0.  0.
</event>
<event>
 4    1  0.4993983E-021  0.5000050E+01  0.7818608E-02  0.2136455E+00
        -11   -1    0    0    0    0  0.00000000000E+00  0.00000000000E+00  0.50000499739E+01  0.50000500000E+01  0.51100000000E-03 0.  1.
         11   -1    0    0    0    0 -0.00000000000E+00 -0.00000000000E+00 -0.50000499739E+01  0.50000500000E+01  0.51100000000E-03 0. -1.
         50    1    1    2    0    0 -0.42897492162E-02 -0.13212487005E-01  0.17522292624E-01  0.50000500000E+01  0.50000000000E+01 0.  0.
         50    1    1    2    0    0  0.42897492162E-02  0.13212487005E-01 -0.17522292624E-01  0.50000500000E+01  0.50000000000E+01 0. -1.
</event>
<event>
 4    1  0.4993983E-021  0.5000050E+01  0.7818608E-02  0.2136455E+00
        -11   -1    0    0    0    0  0.00000000000E+00  0.00000000000E+00  0.50000499739E+01  0.50000500000E+01  0.51100000000E-03 0.  1.
         11   -1    0    0    0    0 -0.00000000000E+00 -0.00000000000E+00 -0.50000499739E+01  0.50000500000E+01  0.51100000000E-03 0. -1.
         50    1    1    2    0    0  0.13561806527E-01 -0.79977350347E-02  0.15878165449E-01  0.50000500000E+01  0.50000000000E+01 0.  1.
         50    1    1    2    0    0 -0.13561806527E-01  0.79977350347E-02 -0.15878165449E-01  0.50000500000E+01  0.50000000000E+01 0.  0.
</event>
<event>
 4    1  0.4993983E-021  0.5000050E+01  0.7818608E-02  0.2136455E+00
        -11   -1    0    0    0    0  0.00000000000E+00  0.00000000000E+00  0.50000499739E+01  0.50000500000E+01  0.51100000000E-03 0. -1.
         11   -1    0    0    0    0 -0.00000000000E+00 -0.00000000000E+00 -0.50000499739E+01  0.50000500000E+01  0.51100000000E-03 0.  1.
         50    1    1    2    0    0 -0.19455481974E-01  0.18344001297E-02 -0.10868380621E-01  0.50000500000E+01  0.50000000000E+01 0.  1.
         50    1    1    2    0    0  0.19455481974E-01 -0.18344001297E-02  0.10868380621E-01  0.50000500000E+01  0.50000000000E+01 0. -1.
</event>
<event>
 4    1  0.4993983E-021  0.5000050E+01  0.7818608E-02  0.2136455E+00
        -11   -1    0    0    0    0  0.00000000000E+00  0.00000000000E+00  0.50000499739E+01  0.50000500000E+01  0.51100000000E-03 0.  1.
         11   -1    0    0    0    0 -0.00000000000E+00 -0.00000000000E+00 -0.50000499739E+01  0.50000500000E+01  0.51100000000E-03 0. -1.
         50    1    1    2    0    0 -0.83278383170E-02 -0.91334835804E-02  0.18634084003E-01  0.50000500000E+01  0.50000000000E+01 0.  0.
         50    1    1    2    0    0  0.83278383170E-02  0.91334835804E-02 -0.18634084003E-01  0.50000500000E+01  0.50000000000E+01 0.  0.
</event>
<event>
 4    1  0.4993983E-021  0.5000050E+01  0.7818608E-02  0.2136455E+00
        -11   -1    0    0    0    0  0.00000000000E+00  0.00000000000E+00  0.50000499739E+01  0.50000500000E+01  0.51100000000E-03 0. -1.
         11   -1    0    0    0    0 -0.00000000000E+00 -0.00000000000E+00 -0.50000499739E+01  0.50000500000E+01  0.51100000000E-03 0.  1.
         50    1    1    2    0    0  0.17252349595E-01  0.12688252989E-01  0.64317314571E-02  0.50000500000E+01  0.50000000000E+01 0. -1.
         50    1    1    2    0    0 -0.17252349595E-01 -0.12688252989E-01 -0.64317314571E-02  0.50000500000E+01  0.50000000000E+01 0.  1.
</event>
<event>
 4    1  0.4993983E-021  0.5000050E+01  0.7818608E-02  0.2136455E+00
        -11   -1    0    0    0    0  0.00000000000E+00  0.00000000000E+00  0.50000499739E+01  0.50000500000E+01  0.51100000000E-03 0. -1.
         11   -1    0    0    0    0 -0.00000000000E+00 -0.00000000000E+00 -0.50000499739E+01  0.50000500000E+01  0.51100000000E-03 0.  1.
         50    1    1    2    0    0  0.14785842426E-01 -0.57118297957E-02  0.15772012051E-01  0.50000500000E+01  0.50000000000E+01 0.  0.
         50    1    1    2    0    0 -0.14785842426E-01  0.57118297957E-02 -0.15772012051E-01  0.50000500000E+01  0.50000000000E+01 0.  0.
</event>
<event>
 4    1  0.4993983E-021  0.5000050E+01  0.7818608E-02  0.2136455E+00
        -11   -1    0    0    0    0  0.00000000000E+00  0.00000000000E+00  0.50000499739E+01  0.50000500000E+01  0.51100000000E-03 0.  1.
         11   -1    0    0    0    0 -0.00000000000E+00 -0.00000000000E+00 -0.50000499739E+01  0.50000500000E+01  0.51100000000E-03 0. -1.
         50    1    1    2    0    0 -0.80950439970E-02 -0.99868841315E-02  0.18295762024E-01  0.50000500000E+01  0.50000000000E+01 0.  1.
         50    1    1    2    0    0  0.80950439970E-02  0.99868841315E-02 -0.18295762024E-01  0.50000500000E+01  0.50000000000E+01 0. -1.
</event>
<event>
 4    1  0.4993983E-021  0.5000050E+01  0.7818608E-02  0.2136455E+00
        -11   -1    0    0    0    0  0.00000000000E+00  0.00000000000E+00  0.50000499739E+01  0.50000500000E+01  0.51100000000E-03 0.  1.
         11   -1    0    0    0    0 -0.00000000000E+00 -0.00000000000E+00 -0.50000499739E+01  0.50000500000E+01  0.51100000000E-03 0. -1.
         50    1    1    2    0    0  0.16535917758E-01 -0.11684642229E-01  0.94886806186E-02  0.50000500000E+01  0.50000000000E+01 0.  1.
         50    1    1    2    0    0 -0.16535917758E-01  0.11684642229E-01 -0.94886806186E-02  0.50000500000E+01  0.50000000000E+01 0. -1.
</event>
<event>
 4    1  0.4993983E-021  0.5000050E+01  0.7818608E-02  0.2136455E+00
        -11   -1    0    0    0    0  0.00000000000E+00  0.00000000000E+00  0.50000499739E+01  0.50000500000E+01  0.51100000000E-03 0. -1.
         11   -1    0    0    0    0 -0.00000000000E+00 -0.00000000000E+00 -0.50000499739E+01  0.50000500000E+01  0.51100000000E-03 0.  1.
         50    1    1    2    0    0  0.13599980667E-01 -0.13617342591E-01 -0.11384682983E-01  0.50000500000E+01  0.50000000000E+01 0.  1.
         50    1    1    2    0    0 -0.13599980667E-01  0.13617342591E-01  0.11384682983E-01  0.50000500000E+01  0.50000000000E+01 0. -1.
</event>
<event>
 4    1  0.4993983E-021  0.5000050E+01  0.7818608E-02  0.2136455E+00
        -11   -1    0    0    0    0  0.00000000000E+00  0.00000000000E+00  0.50000499739E+01  0.50000500000E+01  0.51100000000E-03 0.  1.
         11   -1    0    0    0    0 -0.00000000000E+00 -0.00000000000E+00 -0.50000499739E+01  0.50000500000E+01  0.51100000000E-03 0. -1.
         50    1    1    2    0    0 -0.14873632480E-01 -0.16474594324E-01 -0.27139083858E-02  0.50000500000E+01  0.50000000000E+01 0. -1.
         50    1    1    2    0    0  0.14873632480E-01  0.16474594324E-01  0.27139083858E-02  0.50000500000E+01  0.50000000000E+01 0.  1.
</event>
<event>
 4    1  0.4993983E-021  0.5000050E+01  0.7818608E-02  0.2136455E+00
        -11   -1    0    0    0    0  0.00000000000E+00  0.00000000000E+00  0.50000499739E+01  0.50000500000E+01  0.51100000000E-03 0.  1.
         11   -1    0    0    0    0 -0.00000000000E+00 -0.00000000000E+00 -0.50000499739E+01  0.50000500000E+01  0.51100000000E-03 0. -1.
         50    1    1    2    0    0  0.76616795312E-02  0.14235844465E-01  0.15448038682E-01  0.50000500000E+01  0.50000000000E+01 0. -1.
         50    1    1    2    0    0 -0.76616795312E-02 -0.14235844465E-01 -0.15448038682E-01  0.50000500000E+01  0.50000000000E+01 0. -1.
</event>
<event>
 4    1  0.4993983E-021  0.5000050E+01  0.7818608E-02  0.2136455E+00
        -11   -1    0    0    0    0  0.00000000000E+00  0.00000000000E+00  0.50000499739E+01  0.50000500000E+01  0.51100000000E-03 0.  1.
         11   -1    0    0    0    0 -0.00000000000E+00 -0.00000000000E+00 -0.50000499739E+01  0.50000500000E+01  0.51100000000E-03 0. -1.
         50    1    1    2    0    0 -0.41745004773E-02 -0.28309215830E-02 -0.21784442356E-01  0.50000500000E+01  0.50000000000E+01 0. -1.
         50    1    1    2    0    0  0.41745004773E-02  0.28309215830E-02  0.21784442356E-01  0.50000500000E+01  0.50000000000E+01 0.  0.
</event>
<event>
 4    1  0.4993983E-021  0.5000050E+01  0.7818608E-02  0.2136455E+00
        -11   -1    0    0    0    0  0.00000000000E+00  0.00000000000E+00  0.50000499739E+01  0.50000500000E+01  0.51100000000E-03 0.  1.
         11   -1    0    0    0    0 -0.00000000000E+00 -0.00000000000E+00 -0.50000499739E+01  0.50000500000E+01  0.51100000000E-03 0. -1.
         50    1    1    2    0    0 -0.66619670271E-02 -0.20050414162E-01 -0.73213104870E-02  0.50000500000E+01  0.50000000000E+01 0.  0.
         50    1    1    2    0    0  0.66619670271E-02  0.20050414162E-01  0.73213104870E-02  0.50000500000E+01  0.50000000000E+01 0.  0.
</event>
<event>
 4    1  0.4993983E-021  0.5000050E+01  0.7818608E-02  0.2136455E+00
        -11   -1    0    0    0    0  0.00000000000E+00  0.00000000000E+00  0.50000499739E+01  0.50000500000E+01  0.51100000000E-03 0. -1.
         11   -1    0    0    0    0 -0.00000000000E+00 -0.00000000000E+00 -0.50000499739E+01  0.50000500000E+01  0.51100000000E-03 0.  1.
         50    1    1    2    0    0  0.80435550872E-02 -0.12820468704E-01  0.16460234013E-01  0.50000500000E+01  0.50000000000E+01 0.  1.
         50    1    1    2    0    0 -0.80435550872E-02  0.12820468704E-01 -0.16460234013E-01  0.50000500000E+01  0.50000000000E+01 0.  1.
</event>
<event>
 4    1  0.4993983E-021  0.5000050E+01  0.7818608E-02  0.2136455E+00
        -11   -1    0    0    0    0  0.00000000000E+00  0.00000000000E+00  0.50000499739E+01  0.50000500000E+01  0.51100000000E-03 0. -1.
         11   -1    0    0    0    0 -0.00000000000E+00 -0.00000000000E+00 -0.50000499739E+01  0.50000500000E+01  0.51100000000E-03 0.  1.
         50    1    1    2    0    0  0.58531515714E-02  0.28722662045E-02  0.21389090760E-01  0.50000500000E+01  0.50000000000E+01 0. -1.
         50    1    1    2    0    0 -0.58531515714E-02 -0.28722662045E-02 -0.21389090760E-01  0.50000500000E+01  0.50000000000E+01 0.  0.
</event>
<event>
 4    1  0.4993983E-021  0.5000050E+01  0.7818608E-02  0.2136455E+00
        -11   -1    0    0    0    0  0.00000000000E+00  0.00000000000E+00  0.50000499739E+01  0.50000500000E+01  0.51100000000E-03 0. -1.
         11   -1    0    0    0    0 -0.00000000000E+00 -0.00000000000E+00 -0.50000499739E+01  0.50000500000E+01  0.51100000000E-03 0.  1.
         50    1    1    2    0    0  0.12175878853E-01  0.92406124803E-02 -0.16320586850E-01  0.50000500000E+01  0.50000000000E+01 0.  0.
         50    1    1    2    0    0 -0.12175878853E-01 -0.92406124803E-02  0.16320586850E-01  0.50000500000E+01  0.50000000000E+01 0.  0.
</event>
<event>
 4    1  0.4993983E-021  0.5000050E+01  0.7818608E-02  0.2136455E+00
        -11   -1    0    0    0    0  0.00000000000E+00  0.00000000000E+00  0.50000499739E+01  0.50000500000E+01  0.51100000000E-03 0. -1.
         11   -1    0    0    0    0 -0.00000000000E+00 -0.00000000000E+00 -0.50000499739E+01  0.50000500000E+01  0.51100000000E-03 0.  1.
         50    1    1    2    0    0 -0.44703693942E-03 -0.20585189103E-01 -0.87208169105E-02  0.50000500000E+01  0.50000000000E+01 0. -1.
         50    1    1    2    0    0  0.44703693942E-03  0.20585189103E-01  0.87208169105E-02  0.50000500000E+01  0.50000000000E+01 0.  0.
</event>
<event>
 4    1  0.4993983E-021  0.5000050E+01  0.7818608E-02  0.2136455E+00
        -11   -1    0    0    0    0  0.00000000000E+00  0.00000000000E+00  0.50000499739E+01  0.50000500000E+01  0.51100000000E-03 0. -1.
         11   -1    0    0    0    0 -0.00000000000E+00 -0.00000000000E+00 -0.50000499739E+01  0.50000500000E+01  0.51100000000E-03 0.  1.
         50    1    1    2    0    0  0.10980734687E-01 -0.16492420111E-01  0.10364653617E-01  0.50000500000E+01  0.50000000000E+01 0.  0.
         50    1    1    2    0    0 -0.10980734687E-01  0.16492420111E-01 -0.10364653617E-01  0.50000500000E+01  0.50000000000E+01 0.  0.
</event>
<event>
 4    1  0.4993983E-021  0.5000050E+01  0.7818608E-02  0.2136455E+00
        -11   -1    0    0    0    0  0.00000000000E+00  0.00000000000E+00  0.50000499739E+01  0.50000500000E+01  0.51100000000E-03 0.  1.
         11   -1    0    0    0    0 -0.00000000000E+00 -0.00000000000E+00 -0.50000499739E+01  0.50000500000E+01  0.51100000000E-03 0. -1.
         50    1    1    2    0    0 -0.85082723733E-02 -0.19276716286E-01  0.74846516598E-02  0.50000500000E+01  0.50000000000E+01 0.  0.
         50    1    1    2    0    0  0.85082723733E-02  0.19276716286E-01 -0.74846516598E-02  0.50000500000E+01  0.50000000000E+01 0.  0.
</event>
<event>
 4    1  0.4993983E-021  0.5000050E+01  0.7818608E-02  0.2136455E+00
        -11   -1    0    0    0    0  0.00000000000E+00  0.00000000000E+00  0.50000499739E+01  0.50000500000E+01  0.51100000000E-03 0.  1.
         11   -1    0    0    0    0 -0.00000000000E+00 -0.00000000000E+00 -0.50000499739E+01  0.50000500000E+01  0.51100000000E-03 0. -1.
         50    1    1    2    0    0 -0.12931912861E-01 -0.96457378693E-02 -0.15483147959E-01  0.50000500000E+01  0.50000000000E+01 0. -1.
         50    1    1    2    0    0  0.12931912861E-01  0.96457378693E-02  0.15483147959E-01  0.50000500000E+01  0.50000000000E+01 0. -1.
</event>
<event>
 4    1  0.4993983E-021  0.5000050E+01  0.7818608E-02  0.2136455E+00
        -11   -1    0    0    0    0  0.00000000000E+00  0.00000000000E+00  0.50000499739E+01  0.50000500000E+01  0.51100000000E-03 0. -1.
         11   -1    0    0    0    0 -0.00000000000E+00 -0.00000000000E+00 -0.50000499739E+01  0.50000500000E+01  0.51100000000E-03 0.  1.
         50    1    1    2    0    0  0.17809539246E-01 -0.95027300412E-02  0.96187802547E-02  0.50000500000E+01  0.50000000000E+01 0. -1.
         50    1    1    2    0    0 -0.17809539246E-01  0.95027300412E-02 -0.96187802547E-02  0.50000500000E+01  0.50000000000E+01 0.  1.
</event>
<event>
 4    1  0.4993983E-021  0.5000050E+01  0.7818608E-02  0.2136455E+00
        -11   -1    0    0    0    0  0.00000000000E+00  0.00000000000E+00  0.50000499739E+01  0.50000500000E+01  0.51100000000E-03 0.  1.
         11   -1    0    0    0    0 -0.00000000000E+00 -0.00000000000E+00 -0.50000499739E+01  0.50000500000E+01  0.51100000000E-03 0. -1.
         50    1    1    2    0    0 -0.33596690979E-03 -0.17416238069E-01 -0.14020138294E-01  0.50000500000E+01  0.50000000000E+01 0. -1.
         50    1    1    2    0    0  0.33596690979E-03  0.17416238069E-01  0.14020138294E-01  0.50000500000E+01  0.50000000000E+01 0. -1.
</event>
<event>
 4    1  0.4993983E-021  0.5000050E+01  0.7818608E-02  0.2136455E+00
        -11   -1    0    0    0    0  0.00000000000E+00  0.00000000000E+00  0.50000499739E+01  0.50000500000E+01  0.51100000000E-03 0.  1.
         11   -1    0    0    0    0 -0.00000000000E+00 -0.00000000000E+00 -0.50000499739E+01  0.50000500000E+01  0.51100000000E-03 0. -1.
         50    1    1    2    0    0 -0.85616795346E-02 -0.20522894773E-01 -0.23475377952E-02  0.50000500000E+01  0.50000000000E+01 0.  1.
         50    1    1    2    0    0  0.85616795346E-02  0.20522894773E-01  0.23475377952E-02  0.50000500000E+01  0.50000000000E+01 0. -1.
</event>
<event>
 4    1  0.4993983E-021  0.5000050E+01  0.7818608E-02  0.2136455E+00
        -11   -1    0    0    0    0  0.00000000000E+00  0.00000000000E+00  0.50000499739E+01  0.50000500000E+01  0.51100000000E-03 0. -1.
         11   -1    0    0    0    0 -0.00000000000E+00 -0.00000000000E+00 -0.50000499739E+01  0.50000500000E+01  0.51100000000E-03 0.  1.
         50    1    1    2    0    0 -0.46084377549E-02  0.19625467370E-01  0.96750106969E-02  0.50000500000E+01  0.50000000000E+01 0. -1.
         50    1    1    2    0    0  0.46084377549E-02 -0.19625467370E-01 -0.96750106969E-02  0.50000500000E+01  0.50000000000E+01 0.  1.
</event>
<event>
 4    1  0.4993983E-021  0.5000050E+01  0.7818608E-02  0.2136455E+00
        -11   -1    0    0    0    0  0.00000000000E+00  0.00000000000E+00  0.50000499739E+01  0.50000500000E+01  0.51100000000E-03 0.  1.
         11   -1    0    0    0    0 -0.00000000000E+00 -0.00000000000E+00 -0.50000499739E+01  0.50000500000E+01  0.51100000000E-03 0. -1.
         50    1    1    2    0    0  0.19095573979E-02 -0.20981276154E-01  0.74928059830E-02  0.50000500000E+01  0.50000000000E+01 0.  1.
         50    1    1    2    0    0 -0.19095573979E-02  0.20981276154E-01 -0.74928059830E-02  0.50000500000E+01  0.50000000000E+01 0. -1.
</event>
<event>
 4    1  0.4993983E-021  0.5000050E+01  0.7818608E-02  0.2136455E+00
        -11   -1    0    0    0    0  0.00000000000E+00  0.00000000000E+00  0.50000499739E+01  0.50000500000E+01  0.51100000000E-03 0. -1.
         11   -1    0    0    0    0 -0.00000000000E+00 -0.00000000000E+00 -0.50000499739E+01  0.50000500000E+01  0.51100000000E-03 0.  1.
         50    1    1    2    0    0 -0.15171408356E-01  0.16426301532E-01 -0.86524334892E-04  0.50000500000E+01  0.50000000000E+01 0.  0.
         50    1    1    2    0    0  0.15171408356E-01 -0.16426301532E-01  0.86524334891E-04  0.50000500000E+01  0.50000000000E+01 0.  1.
</event>
<event>
 4    1  0.4993983E-021  0.5000050E+01  0.7818608E-02  0.2136455E+00
        -11   -1    0    0    0    0  0.00000000000E+00  0.00000000000E+00  0.50000499739E+01  0.50000500000E+01  0.51100000000E-03 0.  1.
         11   -1    0    0    0    0 -0.00000000000E+00 -0.00000000000E+00 -0.50000499739E+01  0.50000500000E+01  0.51100000000E-03 0. -1.
         50    1    1    2    0    0 -0.10244358330E-01 -0.93862962034E-02 -0.17520076084E-01  0.50000500000E+01  0.50000000000E+01 0.  0.
         50    1    1    2    0    0  0.10244358330E-01  0.93862962034E-02  0.17520076084E-01  0.50000500000E+01  0.50000000000E+01 0.  0.
</event>
<event>
 4    1  0.4993983E-021  0.5000050E+01  0.7818608E-02  0.2136455E+00
        -11   -1    0    0    0    0  0.00000000000E+00  0.00000000000E+00  0.50000499739E+01  0.50000500000E+01  0.51100000000E-03 0.  1.
         11   -1    0    0    0    0 -0.00000000000E+00 -0.00000000000E+00 -0.50000499739E+01  0.50000500000E+01  0.51100000000E-03 0. -1.
         50    1    1    2    0    0 -0.13663187753E-01  0.13271165726E-01  0.11713067945E-01  0.50000500000E+01  0.50000000000E+01 0.  0.
         50    1    1    2    0    0  0.13663187753E-01 -0.13271165726E-01 -0.11713067945E-01  0.50000500000E+01  0.50000000000E+01 0.  1.
</event>
<event>
 4    1  0.4993983E-021  0.5000050E+01  0.7818608E-02  0.2136455E+00
        -11   -1    0    0    0    0  0.00000000000E+00  0.00000000000E+00  0.50000499739E+01  0.50000500000E+01  0.51100000000E-03 0. -1.
         11   -1    0    0    0    0 -0.00000000000E+00 -0.00000000000E+00 -0.50000499739E+01  0.50000500000E+01  0.51100000000E-03 0.  1.
         50    1    1    2    0    0  0.25590997716E-02 -0.15030029012E-01 -0.16357008781E-01  0.50000500000E+01  0.50000000000E+01 0. -1.
         50    1    1    2    0    0 -0.25590997716E-02  0.15030029012E-01  0.16357008781E-01  0.50000500000E+01  0.50000000000E+01 0. -1.
</event>
<event>
 4    1  0.4993983E-021  0.5000050E+01  0.7818608E-02  0.2136455E+00
        -11   -1    0    0    0    0  0.00000000000E+00  0.00000000000E+00  0.50000499739E+01  0.50000500000E+01  0.51100000000E-03 0. -1.
         11   -1    0    0    0    0 -0.00000000000E+00 -0.00000000000E+00 -0.50000499739E+01  0.50000500000E+01  0.51100000000E-03 0.  1.
         50    1    1    2    0    0  0.45863923549E-02 -0.48495770458E-02  0.21341253657E-01  0.50000500000E+01  0.50000000000E+01 0. -1.
         50    1    1    2    0    0 -0.45863923549E-02  0.48495770458E-02 -0.21341253657E-01  0.50000500000E+01  0.50000000000E+01 0.  1.
</event>
<event>
 4    1  0.4993983E-021  0.5000050E+01  0.7818608E-02  0.2136455E+00
        -11   -1    0    0    0    0  0.00000000000E+00  0.00000000000E+00  0.50000499739E+01  0.50000500000E+01  0.51100000000E-03 0. -1.
         11   -1    0    0    0    0 -0.00000000000E+00 -0.00000000000E+00 -0.50000499739E+01  0.50000500000E+01  0.51100000000E-03 0.  1.
         50    1    1    2    0    0 -0.39957256188E-02  0.29846096680E-02  0.21797448977E-01  0.50000500000E+01  0.50000000000E+01 0. -1.
         50    1    1    2    0    0  0.39957256188E-02 -0.29846096680E-02 -0.21797448977E-01  0.50000500000E+01  0.50000000000E+01 0.  0.
</event>
<event>
 4    1  0.4993983E-021  0.5000050E+01  0.7818608E-02  0.2136455E+00
        -11   -1    0    0    0    0  0.00000000000E+00  0.00000000000E+00  0.50000499739E+01  0.50000500000E+01  0.51100000000E-03 0.  1.
         11   -1    0    0    0    0 -0.00000000000E+00 -0.00000000000E+00 -0.50000499739E+01  0.50000500000E+01  0.51100000000E-03 0. -1.
         50    1    1    2    0    0  0.72724528634E-02  0.20564050999E-01  0.49227772501E-02  0.50000500000E+01  0.50000000000E+01 0.  1.
         50    1    1    2    0    0 -0.72724528634E-02 -0.20564050999E-01 -0.49227772501E-02  0.50000500000E+01  0.50000000000E+01 0. -1.
</event>
<event>
 4    1  0.4993983E-021  0.5000050E+01  0.7818608E-02  0.2136455E+00
        -11   -1    0    0    0    0  0.00000000000E+00  0.00000000000E+00  0.50000499739E+01  0.50000500000E+01  0.51100000000E-03 0. -1.
         11   -1    0    0    0    0 -0.00000000000E+00 -0.00000000000E+00 -0.50000499739E+01  0.50000500000E+01  0.51100000000E-03 0.  1.
         50    1    1    2    0    0 -0.35200980759E-02 -0.21871859820E-01  0.30386111180E-02  0.50000500000E+01  0.50000000000E+01 0.  0.
         50    1    1    2    0    0  0.35200980759E-02  0.21871859820E-01 -0.30386111180E-02  0.50000500000E+01  0.50000000000E+01 0. -1.
</event>
<event>
 4    1  0.4993983E-021  0.5000050E+01  0.7818608E-02  0.2136455E+00
        -11   -1    0    0    0    0  0.00000000000E+00  0.00000000000E+00  0.50000499739E+01  0.50000500000E+01  0.51100000000E-03 0.  1.
         11   -1    0    0    0    0 -0.00000000000E+00 -0.00000000000E+00 -0.50000499739E+01  0.50000500000E+01  0.51100000000E-03 0. -1.
         50    1    1    2    0    0  0.12481380754E-01  0.11615356760E-01 -0.14467243062E-01  0.50000500000E+01  0.50000000000E+01 0.  0.
         50    1    1    2    0    0 -0.12481380754E-01 -0.11615356760E-01  0.14467243062E-01  0.50000500000E+01  0.50000000000E+01 0.  0.
</event>
<event>
 4    1  0.4993983E-021  0.5000050E+01  0.7818608E-02  0.2136455E+00
        -11   -1    0    0    0    0  0.00000000000E+00  0.00000000000E+00  0.50000499739E+01  0.50000500000E+01  0.51100000000E-03 0.  1.
         11   -1    0    0    0    0 -0.00000000000E+00 -0.00000000000E+00 -0.50000499739E+01  0.50000500000E+01  0.51100000000E-03 0. -1.
         50    1    1    2    0    0  0.69895671168E-02 -0.14903985449E-01 -0.15133395827E-01  0.50000500000E+01  0.50000000000E+01 0. -1.
         50    1    1    2    0    0 -0.69895671168E-02  0.14903985449E-01  0.15133395827E-01  0.50000500000E+01  0.50000000000E+01 0.  1.
</event>
<event>
 4    1  0.4993983E-021  0.5000050E+01  0.7818608E-02  0.2136455E+00
        -11   -1    0    0    0    0  0.00000000000E+00  0.00000000000E+00  0.50000499739E+01  0.50000500000E+01  0.51100000000E-03 0. -1.
         11   -1    0    0    0    0 -0.00000000000E+00 -0.00000000000E+00 -0.50000499739E+01  0.50000500000E+01  0.51100000000E-03 0.  1.
         50    1    1    2    0    0 -0.11643090563E-01 -0.18787529040E-01  0.33866937717E-02  0.50000500000E+01  0.50000000000E+01 0. -1.
         50    1    1    2    0    0  0.11643090563E-01  0.18787529040E-01 -0.33866937717E-02  0.50000500000E+01  0.50000000000E+01 0.  1.
</event>
<event>
 4    1  0.4993983E-021  0.5000050E+01  0.7818608E-02  0.2136455E+00
        -11   -1    0    0    0    0  0.00000000000E+00  0.00000000000E+00  0.50000499739E+01  0.50000500000E+01  0.51100000000E-03 0. -1.
         11   -1    0    0    0    0 -0.00000000000E+00 -0.00000000000E+00 -0.50000499739E+01  0.50000500000E+01  0.51100000000E-03 0.  1.
         50    1    1    2    0    0  0.20843797250E-02 -0.16640600057E-01  0.14790141680E-01  0.50000500000E+01  0.50000000000E+01 0.  0.
         50    1    1    2    0    0 -0.20843797250E-02  0.16640600057E-01 -0.14790141680E-01  0.50000500000E+01  0.50000000000E+01 0.  0.
</event>
<event>
 4    1  0.4993983E-021  0.5000050E+01  0.7818608E-02  0.2136455E+00
        -11   -1    0    0    0    0  0.00000000000E+00  0.00000000000E+00  0.50000499739E+01  0.50000500000E+01  0.51100000000E-03 0.  1.
         11   -1    0    0    0    0 -0.00000000000E+00 -0.00000000000E+00 -0.50000499739E+01  0.50000500000E+01  0.51100000000E-03 0. -1.
         50    1    1    2    0    0  0.20160888906E-01  0.27283648982E-02 -0.92788514102E-02  0.50000500000E+01  0.50000000000E+01 0. -1.
         50    1    1    2    0    0 -0.20160888906E-01 -0.27283648982E-02  0.92788514102E-02  0.50000500000E+01  0.50000000000E+01 0.  1.
</event>
<event>
 4    1  0.4993983E-021  0.5000050E+01  0.7818608E-02  0.2136455E+00
        -11   -1    0    0    0    0  0.00000000000E+00  0.00000000000E+00  0.50000499739E+01  0.50000500000E+01  0.51100000000E-03 0.  1.
         11   -1    0    0    0    0 -0.00000000000E+00 -0.00000000000E+00 -0.50000499739E+01  0.50000500000E+01  0.51100000000E-03 0. -1.
         50    1    1    2    0    0  0.52383331729E-04 -0.15295723562E-01  0.16310750954E-01  0.50000500000E+01  0.50000000000E+01 0.  0.
         50    1    1    2    0    0 -0.52383331729E-04  0.15295723562E-01 -0.16310750954E-01  0.50000500000E+01  0.50000000000E+01 0. -1.
</event>
<event>
 4    1  0.4993983E-021  0.5000050E+01  0.7818608E-02  0.2136455E+00
        -11   -1    0    0    0    0  0.00000000000E+00  0.00000000000E+00  0.50000499739E+01  0.50000500000E+01  0.51100000000E-03 0. -1.
         11   -1    0    0    0    0 -0.00000000000E+00 -0.00000000000E+00 -0.50000499739E+01  0.50000500000E+01  0.51100000000E-03 0.  1.
         50    1    1    2    0    0  0.20221239089E-01  0.22280027456E-02  0.92811633679E-02  0.50000500000E+01  0.50000000000E+01 0. -1.
         50    1    1    2    0    0 -0.20221239089E-01 -0.22280027456E-02 -0.92811633679E-02  0.50000500000E+01  0.50000000000E+01 0.  1.
</event>
<event>
 4    1  0.4993983E-021  0.5000050E+01  0.7818608E-02  0.2136455E+00
        -11   -1    0    0    0    0  0.00000000000E+00  0.00000000000E+00  0.50000499739E+01  0.50000500000E+01  0.51100000000E-03 0. -1.
         11   -1    0    0    0    0 -0.00000000000E+00 -0.00000000000E+00 -0.50000499739E+01  0.50000500000E+01  0.51100000000E-03 0.  1.
         50    1    1    2    0    0 -0.38940014138E-02  0.17076565596E-01  0.13900725177E-01  0.50000500000E+01  0.50000000000E+01 0. -1.
         50    1    1    2    0    0  0.38940014138E-02 -0.17076565596E-01 -0.13900725177E-01  0.50000500000E+01  0.50000000000E+01 0.  1.
</event>
<event>
 4    1  0.4993983E-021  0.5000050E+01  0.7818608E-02  0.2136455E+00
        -11   -1    0    0    0    0  0.00000000000E+00  0.00000000000E+00  0.50000499739E+01  0.50000500000E+01  0.51100000000E-03 0.  1.
         11   -1    0    0    0    0 -0.00000000000E+00 -0.00000000000E+00 -0.50000499739E+01  0.50000500000E+01  0.51100000000E-03 0. -1.
         50    1    1    2    0    0  0.49029125684E-02  0.21037826633E-01  0.57770060513E-02  0.50000500000E+01  0.50000000000E+01 0.  1.
         50    1    1    2    0    0 -0.49029125684E-02 -0.21037826633E-01 -0.57770060513E-02  0.50000500000E+01  0.50000000000E+01 0. -1.
</event>
<event>
 4    1  0.4993983E-021  0.5000050E+01  0.7818608E-02  0.2136455E+00
        -11   -1    0    0    0    0  0.00000000000E+00  0.00000000000E+00  0.50000499739E+01  0.50000500000E+01  0.51100000000E-03 0. -1.
         11   -1    0    0    0    0 -0.00000000000E+00 -0.00000000000E+00 -0.50000499739E+01  0.50000500000E+01  0.51100000000E-03 0.  1.
         50    1    1    2    0    0  0.72919048955E-02  0.21022020632E-01  0.22147847604E-02  0.50000500000E+01  0.50000000000E+01 0. -1.
         50    1    1    2    0    0 -0.72919048955E-02 -0.21022020632E-01 -0.22147847604E-02  0.50000500000E+01  0.50000000000E+01 0.  1.
</event>
<event>
 4    1  0.4993983E-021  0.5000050E+01  0.7818608E-02  0.2136455E+00
        -11   -1    0    0    0    0  0.00000000000E+00  0.00000000000E+00  0.50000499739E+01  0.50000500000E+01  0.51100000000E-03 0.  1.
         11   -1    0    0    0    0 -0.00000000000E+00 -0.00000000000E+00 -0.50000499739E+01  0.50000500000E+01  0.51100000000E-03 0. -1.
         50    1    1    2    0    0 -0.18198333527E-01 -0.12767721964E-01  0.24100690215E-02  0.50000500000E+01  0.50000000000E+01 0.  0.
         50    1    1    2    0    0  0.18198333527E-01  0.12767721964E-01 -0.24100690215E-02  0.50000500000E+01  0.50000000000E+01 0. -1.
</event>
<event>
 4    1  0.4993983E-021  0.5000050E+01  0.7818608E-02  0.2136455E+00
        -11   -1    0    0    0    0  0.00000000000E+00  0.00000000000E+00  0.50000499739E+01  0.50000500000E+01  0.51100000000E-03 0.  1.
         11   -1    0    0    0    0 -0.00000000000E+00 -0.00000000000E+00 -0.50000499739E+01  0.50000500000E+01  0.51100000000E-03 0. -1.
         50    1    1    2    0    0 -0.80073316709E-02 -0.19798086006E-01  0.66272867749E-02  0.50000500000E+01  0.50000000000E+01 0.  0.
         50    1    1    2    0    0  0.80073316709E-02  0.19798086006E-01 -0.66272867749E-02  0.50000500000E+01  0.50000000000E+01 0.  1.
</event>
<event>
 4    1  0.4993983E-021  0.5000050E+01  0.7818608E-02  0.2136455E+00
        -11   -1    0    0    0    0  0.00000000000E+00  0.00000000000E+00  0.50000499739E+01  0.50000500000E+01  0.51100000000E-03 0.  1.
         11   -1    0    0    0    0 -0.00000000000E+00 -0.00000000000E+00 -0.50000499739E+01  0.50000500000E+01  0.51100000000E-03 0. -1.
         50    1    1    2    0    0 -0.10978217282E-01  0.12563784280E-01  0.14887329172E-01  0.50000500000E+01  0.50000000000E+01 0.  1.
         50    1    1    2    0    0  0.10978217282E-01 -0.12563784280E-01 -0.14887329172E-01  0.50000500000E+01  0.50000000000E+01 0. -1.
</event>
<event>
 4    1  0.4993983E-021  0.5000050E+01  0.7818608E-02  0.2136455E+00
        -11   -1    0    0    0    0  0.00000000000E+00  0.00000000000E+00  0.50000499739E+01  0.50000500000E+01  0.51100000000E-03 0. -1.
         11   -1    0    0    0    0 -0.00000000000E+00 -0.00000000000E+00 -0.50000499739E+01  0.50000500000E+01  0.51100000000E-03 0.  1.
         50    1    1    2    0    0  0.18791870423E-02 -0.36386222625E-02  0.21982529065E-01  0.50000500000E+01  0.50000000000E+01 0.  0.
         50    1    1    2    0    0 -0.18791870423E-02  0.36386222625E-02 -0.21982529065E-01  0.50000500000E+01  0.50000000000E+01 0.  1.
</event>
<event>
 4    1  0.4993983E-021  0.5000050E+01  0.7818608E-02  0.2136455E+00
        -11   -1    0    0    0    0  0.00000000000E+00  0.00000000000E+00  0.50000499739E+01  0.50000500000E+01  0.51100000000E-03 0. -1.
         11   -1    0    0    0    0 -0.00000000000E+00 -0.00000000000E+00 -0.50000499739E+01  0.50000500000E+01  0.51100000000E-03 0.  1.
         50    1    1    2    0    0 -0.20139139350E-01 -0.93776414918E-02 -0.25450749052E-02  0.50000500000E+01  0.50000000000E+01 0. -1.
         50    1    1    2    0    0  0.20139139350E-01  0.93776414918E-02  0.25450749052E-02  0.50000500000E+01  0.50000000000E+01 0.  1.
</event>
<event>
 4    1  0.4993983E-021  0.5000050E+01  0.7818608E-02  0.2136455E+00
        -11   -1    0    0    0    0  0.00000000000E+00  0.00000000000E+00  0.50000499739E+01  0.50000500000E+01  0.51100000000E-03 0. -1.
         11   -1    0    0    0    0 -0.00000000000E+00 -0.00000000000E+00 -0.50000499739E+01  0.50000500000E+01  0.51100000000E-03 0.  1.
         50    1    1    2    0    0  0.16420947831E-01 -0.11364449835E-01 -0.10060032419E-01  0.50000500000E+01  0.50000000000E+01 0.  1.
         50    1    1    2    0    0 -0.16420947831E-01  0.11364449835E-01  0.10060032419E-01  0.50000500000E+01  0.50000000000E+01 0. -1.
</event>
<event>
 4    1  0.4993983E-021  0.5000050E+01  0.7818608E-02  0.2136455E+00
        -11   -1    0    0    0    0  0.00000000000E+00  0.00000000000E+00  0.50000499739E+01  0.50000500000E+01  0.51100000000E-03 0. -1.
         11   -1    0    0    0    0 -0.00000000000E+00 -0.00000000000E+00 -0.50000499739E+01  0.50000500000E+01  0.51100000000E-03 0.  1.
         50    1    1    2    0    0  0.15448388922E-01 -0.13624016014E-01 -0.87026414026E-02  0.50000500000E+01  0.50000000000E+01 0. -1.
         50    1    1    2    0    0 -0.15448388922E-01  0.13624016014E-01  0.87026414026E-02  0.50000500000E+01  0.50000000000E+01 0.  1.
</event>
<event>
 4    1  0.4993983E-021  0.5000050E+01  0.7818608E-02  0.2136455E+00
        -11   -1    0    0    0    0  0.00000000000E+00  0.00000000000E+00  0.50000499739E+01  0.50000500000E+01  0.51100000000E-03 0.  1.
         11   -1    0    0    0    0 -0.00000000000E+00 -0.00000000000E+00 -0.50000499739E+01  0.50000500000E+01  0.51100000000E-03 0. -1.
         50    1    1    2    0    0 -0.97079990282E-02 -0.19139149284E-01 -0.62809409764E-02  0.50000500000E+01  0.50000000000E+01 0. -1.
         50    1    1    2    0    0  0.97079990282E-02  0.19139149284E-01  0.62809409764E-02  0.50000500000E+01  0.50000000000E+01 0.  1.
</event>
<event>
 4    1  0.4993983E-021  0.5000050E+01  0.7818608E-02  0.2136455E+00
        -11   -1    0    0    0    0  0.00000000000E+00  0.00000000000E+00  0.50000499739E+01  0.50000500000E+01  0.51100000000E-03 0. -1.
         11   -1    0    0    0    0 -0.00000000000E+00 -0.00000000000E+00 -0.50000499739E+01  0.50000500000E+01  0.51100000000E-03 0.  1.
         50    1    1    2    0    0  0.21223245128E-01 -0.57725068066E-02  0.40316908874E-02  0.50000500000E+01  0.50000000000E+01 0.  1.
         50    1    1    2    0    0 -0.21223245128E-01  0.57725068066E-02 -0.40316908874E-02  0.50000500000E+01  0.50000000000E+01 0.  0.
</event>
<event>
 4    1  0.4993983E-021  0.5000050E+01  0.7818608E-02  0.2136455E+00
        -11   -1    0    0    0    0  0.00000000000E+00  0.00000000000E+00  0.50000499739E+01  0.50000500000E+01  0.51100000000E-03 0.  1.
         11   -1    0    0    0    0 -0.00000000000E+00 -0.00000000000E+00 -0.50000499739E+01  0.50000500000E+01  0.51100000000E-03 0. -1.
         50    1    1    2    0    0 -0.49464724288E-02  0.99829519394E-03 -0.21783900413E-01  0.50000500000E+01  0.50000000000E+01 0.  0.
         50    1    1    2    0    0  0.49464724288E-02 -0.99829519394E-03  0.21783900413E-01  0.50000500000E+01  0.50000000000E+01 0.  1.
</event>
<event>
 4    1  0.4993983E-021  0.5000050E+01  0.7818608E-02  0.2136455E+00
        -11   -1    0    0    0    0  0.00000000000E+00  0.00000000000E+00  0.50000499739E+01  0.50000500000E+01  0.51100000000E-03 0.  1.
         11   -1    0    0    0    0 -0.00000000000E+00 -0.00000000000E+00 -0.50000499739E+01  0.50000500000E+01  0.51100000000E-03 0. -1.
         50    1    1    2    0    0 -0.22288078983E-01 -0.11580654049E-02 -0.13794635787E-02  0.50000500000E+01  0.50000000000E+01 0.  1.
         50    1    1    2    0    0  0.22288078983E-01  0.11580654049E-02  0.13794635787E-02  0.50000500000E+01  0.50000000000E+01 0.  0.
</event>
<event>
 4    1  0.4993983E-021  0.5000050E+01  0.7818608E-02  0.2136455E+00
        -11   -1    0    0    0    0  0.00000000000E+00  0.00000000000E+00  0.50000499739E+01  0.50000500000E+01  0.51100000000E-03 0.  1.
         11   -1    0    0    0    0 -0.00000000000E+00 -0.00000000000E+00 -0.50000499739E+01  0.50000500000E+01  0.51100000000E-03 0. -1.
         50    1    1    2    0    0 -0.83284601202E-02  0.10623190194E-02 -0.20724640656E-01  0.50000500000E+01  0.50000000000E+01 0.  0.
         50    1    1    2    0    0  0.83284601202E-02 -0.10623190194E-02  0.20724640656E-01  0.50000500000E+01  0.50000000000E+01 0.  0.
</event>
<event>
 4    1  0.4993983E-021  0.5000050E+01  0.7818608E-02  0.2136455E+00
        -11   -1    0    0    0    0  0.00000000000E+00  0.00000000000E+00  0.50000499739E+01  0.50000500000E+01  0.51100000000E-03 0. -1.
         11   -1    0    0    0    0 -0.00000000000E+00 -0.00000000000E+00 -0.50000499739E+01  0.50000500000E+01  0.51100000000E-03 0.  1.
         50    1    1    2    0    0  0.16348186419E-01  0.14542332214E-01 -0.46108431520E-02  0.50000500000E+01  0.50000000000E+01 0.  1.
         50    1    1    2    0    0 -0.16348186419E-01 -0.14542332214E-01  0.46108431520E-02  0.50000500000E+01  0.50000000000E+01 0. -1.
</event>
<event>
 4    1  0.4993983E-021  0.5000050E+01  0.7818608E-02  0.2136455E+00
        -11   -1    0    0    0    0  0.00000000000E+00  0.00000000000E+00  0.50000499739E+01  0.50000500000E+01  0.51100000000E-03 0. -1.
         11   -1    0    0    0    0 -0.00000000000E+00 -0.00000000000E+00 -0.50000499739E+01  0.50000500000E+01  0.51100000000E-03 0.  1.
         50    1    1    2    0    0 -0.19379822362E-01 -0.57929774327E-02 -0.95323867776E-02  0.50000500000E+01  0.50000000000E+01 0.  0.
         50    1    1    2    0    0  0.19379822362E-01  0.57929774327E-02  0.95323867776E-02  0.50000500000E+01  0.50000000000E+01 0.  0.
</event>
<event>
 4    1  0.4993983E-021  0.5000050E+01  0.7818608E-02  0.2136455E+00
        -11   -1    0    0    0    0  0.00000000000E+00  0.00000000000E+00  0.50000499739E+01  0.50000500000E+01  0.51100000000E-03 0. -1.
         11   -1    0    0    0    0 -0.00000000000E+00 -0.00000000000E+00 -0.50000499739E+01  0.50000500000E+01  0.51100000000E-03 0.  1.
         50    1    1    2    0    0 -0.16197638922E-01  0.13258771657E-01 -0.78640935597E-02  0.50000500000E+01  0.50000000000E+01 0.  1.
         50    1    1    2    0    0  0.16197638922E-01 -0.13258771657E-01  0.78640935597E-02  0.50000500000E+01  0.50000000000E+01 0. -1.
</event>
<event>
 4    1  0.4993983E-021  0.5000050E+01  0.7818608E-02  0.2136455E+00
        -11   -1    0    0    0    0  0.00000000000E+00  0.00000000000E+00  0.50000499739E+01  0.50000500000E+01  0.51100000000E-03 0.  1.
         11   -1    0    0    0    0 -0.00000000000E+00 -0.00000000000E+00 -0.50000499739E+01  0.50000500000E+01  0.51100000000E-03 0. -1.
         50    1    1    2    0    0  0.20926816943E-01  0.18144306048E-02  0.76667251307E-02  0.50000500000E+01  0.50000000000E+01 0.  1.
         50    1    1    2    0    0 -0.20926816943E-01 -0.18144306048E-02 -0.76667251307E-02  0.50000500000E+01  0.50000000000E+01 0. -1.
</event>
<event>
 4    1  0.4993983E-021  0.5000050E+01  0.7818608E-02  0.2136455E+00
        -11   -1    0    0    0    0  0.00000000000E+00  0.00000000000E+00  0.50000499739E+01  0.50000500000E+01  0.51100000000E-03 0.  1.
         11   -1    0    0    0    0 -0.00000000000E+00 -0.00000000000E+00 -0.50000499739E+01  0.50000500000E+01  0.51100000000E-03 0. -1.
         50    1    1    2    0    0 -0.59337377061E-02  0.16669811294E-01 -0.13671526918E-01  0.50000500000E+01  0.50000000000E+01 0. -1.
         50    1    1    2    0    0  0.59337377061E-02 -0.16669811294E-01  0.13671526918E-01  0.50000500000E+01  0.50000000000E+01 0. -1.
</event>
<event>
 4    1  0.4993983E-021  0.5000050E+01  0.7818608E-02  0.2136455E+00
        -11   -1    0    0    0    0  0.00000000000E+00  0.00000000000E+00  0.50000499739E+01  0.50000500000E+01  0.51100000000E-03 0.  1.
         11   -1    0    0    0    0 -0.00000000000E+00 -0.00000000000E+00 -0.50000499739E+01  0.50000500000E+01  0.51100000000E-03 0. -1.
         50    1    1    2    0    0  0.92150314851E-02 -0.38225957070E-02 -0.20011832919E-01  0.50000500000E+01  0.50000000000E+01 0.  0.
         50    1    1    2    0    0 -0.92150314851E-02  0.38225957070E-02  0.20011832919E-01  0.50000500000E+01  0.50000000000E+01 0.  1.
</event>
<event>
 4    1  0.4993983E-021  0.5000050E+01  0.7818608E-02  0.2136455E+00
        -11   -1    0    0    0    0  0.00000000000E+00  0.00000000000E+00  0.50000499739E+01  0.50000500000E+01  0.51100000000E-03 0. -1.
         11   -1    0    0    0    0 -0.00000000000E+00 -0.00000000000E+00 -0.50000499739E+01  0.50000500000E+01  0.51100000000E-03 0.  1.
         50    1    1    2    0    0  0.15695896919E-01  0.70629519643E-02  0.14274313625E-01  0.50000500000E+01  0.50000000000E+01 0. -1.
         50    1    1    2    0    0 -0.15695896919E-01 -0.70629519643E-02 -0.14274313625E-01  0.50000500000E+01  0.50000000000E+01 0.  1.
</event>
<event>
 4    1  0.4993983E-021  0.5000050E+01  0.7818608E-02  0.2136455E+00
        -11   -1    0    0    0    0  0.00000000000E+00  0.00000000000E+00  0.50000499739E+01  0.50000500000E+01  0.51100000000E-03 0.  1.
         11   -1    0    0    0    0 -0.00000000000E+00 -0.00000000000E+00 -0.50000499739E+01  0.50000500000E+01  0.51100000000E-03 0. -1.
         50    1    1    2    0    0  0.26155186658E-02 -0.22171585960E-01  0.12579102220E-02  0.50000500000E+01  0.50000000000E+01 0.  0.
         50    1    1    2    0    0 -0.26155186658E-02  0.22171585960E-01 -0.12579102220E-02  0.50000500000E+01  0.50000000000E+01 0. -1.
</event>
<event>
 4    1  0.4993983E-021  0.5000050E+01  0.7818608E-02  0.2136455E+00
        -11   -1    0    0    0    0  0.00000000000E+00  0.00000000000E+00  0.50000499739E+01  0.50000500000E+01  0.51100000000E-03 0. -1.
         11   -1    0    0    0    0 -0.00000000000E+00 -0.00000000000E+00 -0.50000499739E+01  0.50000500000E+01  0.51100000000E-03 0.  1.
         50    1    1    2    0    0 -0.11399057163E-01  0.16606042225E-01  0.97109915770E-02  0.50000500000E+01  0.50000000000E+01 0. -1.
         50    1    1    2    0    0  0.11399057163E-01 -0.16606042225E-01 -0.97109915770E-02  0.50000500000E+01  0.50000000000E+01 0.  1.
</event>
<event>
 4    1  0.4993983E-021  0.5000050E+01  0.7818608E-02  0.2136455E+00
        -11   -1    0    0    0    0  0.00000000000E+00  0.00000000000E+00  0.50000499739E+01  0.50000500000E+01  0.51100000000E-03 0.  1.
         11   -1    0    0    0    0 -0.00000000000E+00 -0.00000000000E+00 -0.50000499739E+01  0.50000500000E+01  0.51100000000E-03 0. -1.
         50    1    1    2    0    0  0.30202306941E-02 -0.18809047958E-01  0.11708988918E-01  0.50000500000E+01  0.50000000000E+01 0.  1.
         50    1    1    2    0    0 -0.30202306941E-02  0.18809047958E-01 -0.11708988918E-01  0.50000500000E+01  0.50000000000E+01 0. -1.
</event>
<event>
 4    1  0.4993983E-021  0.5000050E+01  0.7818608E-02  0.2136455E+00
        -11   -1    0    0    0    0  0.00000000000E+00  0.00000000000E+00  0.50000499739E+01  0.50000500000E+01  0.51100000000E-03 0. -1.
         11   -1    0    0    0    0 -0.00000000000E+00 -0.00000000000E+00 -0.50000499739E+01  0.50000500000E+01  0.51100000000E-03 0.  1.
         50    1    1    2    0    0  0.15993165101E-01  0.14464312473E-01  0.59164883789E-02  0.50000500000E+01  0.50000000000E+01 0.  0.
         50    1    1    2    0    0 -0.15993165101E-01 -0.14464312473E-01 -0.59164883789E-02  0.50000500000E+01  0.50000000000E+01 0.  1.
</event>
<event>
 4    1  0.4993983E-021  0.5000050E+01  0.7818608E-02  0.2136455E+00
        -11   -1    0    0    0    0  0.00000000000E+00  0.00000000000E+00  0.50000499739E+01  0.50000500000E+01  0.51100000000E-03 0.  1.
         11   -1    0    0    0    0 -0.00000000000E+00 -0.00000000000E+00 -0.50000499739E+01  0.50000500000E+01  0.51100000000E-03 0. -1.
         50    1    1    2    0    0 -0.31619189514E-03 -0.18635995298E-01  0.12353226378E-01  0.50000500000E+01  0.50000000000E+01 0.  1.
         50    1    1    2    0    0  0.31619189514E-03  0.18635995298E-01 -0.12353226378E-01  0.50000500000E+01  0.50000000000E+01 0. -1.
</event>
<event>
 4    1  0.4993983E-021  0.5000050E+01  0.7818608E-02  0.2136455E+00
        -11   -1    0    0    0    0  0.00000000000E+00  0.00000000000E+00  0.50000499739E+01  0.50000500000E+01  0.51100000000E-03 0.  1.
         11   -1    0    0    0    0 -0.00000000000E+00 -0.00000000000E+00 -0.50000499739E+01  0.50000500000E+01  0.51100000000E-03 0. -1.
         50    1    1    2    0    0 -0.15746671261E-01 -0.10314673473E-01  0.12068651762E-01  0.50000500000E+01  0.50000000000E+01 0.  1.
         50    1    1    2    0    0  0.15746671261E-01  0.10314673473E-01 -0.12068651762E-01  0.50000500000E+01  0.50000000000E+01 0. -1.
</event>
<event>
 4    1  0.4993983E-021  0.5000050E+01  0.7818608E-02  0.2136455E+00
        -11   -1    0    0    0    0  0.00000000000E+00  0.00000000000E+00  0.50000499739E+01  0.50000500000E+01  0.51100000000E-03 0. -1.
         11   -1    0    0    0    0 -0.00000000000E+00 -0.00000000000E+00 -0.50000499739E+01  0.50000500000E+01  0.51100000000E-03 0.  1.
         50    1    1    2    0    0  0.58371115691E-02 -0.15059559267E-01 -0.15464161898E-01  0.50000500000E+01  0.50000000000E+01 0.  0.
         50    1    1    2    0    0 -0.58371115691E-02  0.15059559267E-01  0.15464161898E-01  0.50000500000E+01  0.50000000000E+01 0. -1.
</event>
<event>
 4    1  0.4993983E-021  0.5000050E+01  0.7818608E-02  0.2136455E+00
        -11   -1    0    0    0    0  0.00000000000E+00  0.00000000000E+00  0.50000499739E+01  0.50000500000E+01  0.51100000000E-03 0. -1.
         11   -1    0    0    0    0 -0.00000000000E+00 -0.00000000000E+00 -0.50000499739E+01  0.50000500000E+01  0.51100000000E-03 0.  1.
         50    1    1    2    0    0  0.14441818840E-01 -0.11311765718E-01  0.12785942473E-01  0.50000500000E+01  0.50000000000E+01 0.  1.
         50    1    1    2    0    0 -0.14441818840E-01  0.11311765718E-01 -0.12785942473E-01  0.50000500000E+01  0.50000000000E+01 0.  0.
</event>
<event>
 4    1  0.4993983E-021  0.5000050E+01  0.7818608E-02  0.2136455E+00
        -11   -1    0    0    0    0  0.00000000000E+00  0.00000000000E+00  0.50000499739E+01  0.50000500000E+01  0.51100000000E-03 0. -1.
         11   -1    0    0    0    0 -0.00000000000E+00 -0.00000000000E+00 -0.50000499739E+01  0.50000500000E+01  0.51100000000E-03 0.  1.
         50    1    1    2    0    0 -0.18379286392E-01  0.81955970410E-02  0.97486676454E-02  0.50000500000E+01  0.50000000000E+01 0. -1.
         50    1    1    2    0    0  0.18379286392E-01 -0.81955970410E-02 -0.97486676454E-02  0.50000500000E+01  0.50000000000E+01 0.  1.
</event>
<event>
 4    1  0.4993983E-021  0.5000050E+01  0.7818608E-02  0.2136455E+00
        -11   -1    0    0    0    0  0.00000000000E+00  0.00000000000E+00  0.50000499739E+01  0.50000500000E+01  0.51100000000E-03 0.  1.
         11   -1    0    0    0    0 -0.00000000000E+00 -0.00000000000E+00 -0.50000499739E+01  0.50000500000E+01  0.51100000000E-03 0. -1.
         50    1    1    2    0    0  0.18890632650E-01  0.69403578792E-02  0.97456621430E-02  0.50000500000E+01  0.50000000000E+01 0.  1.
         50    1    1    2    0    0 -0.18890632650E-01 -0.69403578792E-02 -0.97456621430E-02  0.50000500000E+01  0.50000000000E+01 0. -1.
</event>
<event>
 4    1  0.4993983E-021  0.5000050E+01  0.7818608E-02  0.2136455E+00
        -11   -1    0    0    0    0  0.00000000000E+00  0.00000000000E+00  0.50000499739E+01  0.50000500000E+01  0.51100000000E-03 0. -1.
         11   -1    0    0    0    0 -0.00000000000E+00 -0.00000000000E+00 -0.50000499739E+01  0.50000500000E+01  0.51100000000E-03 0.  1.
         50    1    1    2    0    0 -0.11316530857E-01 -0.11071734637E-01  0.15790988617E-01  0.50000500000E+01  0.50000000000E+01 0. -1.
         50    1    1    2    0    0  0.11316530857E-01  0.11071734637E-01 -0.15790988617E-01  0.50000500000E+01  0.50000000000E+01 0.  1.
</event>
<event>
 4    1  0.4993983E-021  0.5000050E+01  0.7818608E-02  0.2136455E+00
        -11   -1    0    0    0    0  0.00000000000E+00  0.00000000000E+00  0.50000499739E+01  0.50000500000E+01  0.51100000000E-03 0.  1.
         11   -1    0    0    0    0 -0.00000000000E+00 -0.00000000000E+00 -0.50000499739E+01  0.50000500000E+01  0.51100000000E-03 0. -1.
         50    1    1    2    0    0  0.12434426448E-01 -0.20589882281E-02  0.18470195082E-01  0.50000500000E+01  0.50000000000E+01 0.  0.
         50    1    1    2    0    0 -0.12434426448E-01  0.20589882281E-02 -0.18470195082E-01  0.50000500000E+01  0.50000000000E+01 0.  0.
</event>
<event>
 4    1  0.4993983E-021  0.5000050E+01  0.7818608E-02  0.2136455E+00
        -11   -1    0    0    0    0  0.00000000000E+00  0.00000000000E+00  0.50000499739E+01  0.50000500000E+01  0.51100000000E-03 0.  1.
         11   -1    0    0    0    0 -0.00000000000E+00 -0.00000000000E+00 -0.50000499739E+01  0.50000500000E+01  0.51100000000E-03 0. -1.
         50    1    1    2    0    0 -0.21917875188E-01  0.33948828197E-04 -0.44281028337E-02  0.50000500000E+01  0.50000000000E+01 0.  1.
         50    1    1    2    0    0  0.21917875188E-01 -0.33948828197E-04  0.44281028337E-02  0.50000500000E+01  0.50000000000E+01 0.  0.
</event>
<event>
 4    1  0.4993983E-021  0.5000050E+01  0.7818608E-02  0.2136455E+00
        -11   -1    0    0    0    0  0.00000000000E+00  0.00000000000E+00  0.50000499739E+01  0.50000500000E+01  0.51100000000E-03 0. -1.
         11   -1    0    0    0    0 -0.00000000000E+00 -0.00000000000E+00 -0.50000499739E+01  0.50000500000E+01  0.51100000000E-03 0.  1.
         50    1    1    2    0    0 -0.10883071097E-01  0.19493293242E-01  0.12541060915E-02  0.50000500000E+01  0.50000000000E+01 0.  1.
         50    1    1    2    0    0  0.10883071097E-01 -0.19493293242E-01 -0.12541060915E-02  0.50000500000E+01  0.50000000000E+01 0. -1.
</event>
<event>
 4    1  0.4993983E-021  0.5000050E+01  0.7818608E-02  0.2136455E+00
        -11   -1    0    0    0    0  0.00000000000E+00  0.00000000000E+00  0.50000499739E+01  0.50000500000E+01  0.51100000000E-03 0.  1.
         11   -1    0    0    0    0 -0.00000000000E+00 -0.00000000000E+00 -0.50000499739E+01  0.50000500000E+01  0.51100000000E-03 0. -1.
         50    1    1    2    0    0 -0.32709400821E-02  0.21985557407E-01 -0.24369481893E-02  0.50000500000E+01  0.50000000000E+01 0.  0.
         50    1    1    2    0    0  0.32709400821E-02 -0.21985557407E-01  0.24369481893E-02  0.50000500000E+01  0.50000000000E+01 0. -1.
</event>
<event>
 4    1  0.4993983E-021  0.5000050E+01  0.7818608E-02  0.2136455E+00
        -11   -1    0    0    0    0  0.00000000000E+00  0.00000000000E+00  0.50000499739E+01  0.50000500000E+01  0.51100000000E-03 0. -1.
         11   -1    0    0    0    0 -0.00000000000E+00 -0.00000000000E+00 -0.50000499739E+01  0.50000500000E+01  0.51100000000E-03 0.  1.
         50    1    1    2    0    0  0.17490106312E-01  0.11867325532E-01  0.72983056867E-02  0.50000500000E+01  0.50000000000E+01 0. -1.
         50    1    1    2    0    0 -0.17490106312E-01 -0.11867325532E-01 -0.72983056867E-02  0.50000500000E+01  0.50000000000E+01 0.  1.
</event>
<event>
 4    1  0.4993983E-021  0.5000050E+01  0.7818608E-02  0.2136455E+00
        -11   -1    0    0    0    0  0.00000000000E+00  0.00000000000E+00  0.50000499739E+01  0.50000500000E+01  0.51100000000E-03 0.  1.
         11   -1    0    0    0    0 -0.00000000000E+00 -0.00000000000E+00 -0.50000499739E+01  0.50000500000E+01  0.51100000000E-03 0. -1.
         50    1    1    2    0    0  0.17990904705E-01  0.10240836045E-01 -0.84531133311E-02  0.50000500000E+01  0.50000000000E+01 0. -1.
         50    1    1    2    0    0 -0.17990904705E-01 -0.10240836045E-01  0.84531133311E-02  0.50000500000E+01  0.50000000000E+01 0. -1.
</event>
<event>
 4    1  0.4993983E-021  0.5000050E+01  0.7818608E-02  0.2136455E+00
        -11   -1    0    0    0    0  0.00000000000E+00  0.00000000000E+00  0.50000499739E+01  0.50000500000E+01  0.51100000000E-03 0.  1.
         11   -1    0    0    0    0 -0.00000000000E+00 -0.00000000000E+00 -0.50000499739E+01  0.50000500000E+01  0.51100000000E-03 0. -1.
         50    1    1    2    0    0 -0.62460590171E-03  0.25903168296E-03 -0.22350509391E-01  0.50000500000E+01  0.50000000000E+01 0. -1.
         50    1    1    2    0    0  0.62460590171E-03 -0.25903168296E-03  0.22350509391E-01  0.50000500000E+01  0.50000000000E+01 0.  0.
</event>
<event>
 4    1  0.4993983E-021  0.5000050E+01  0.7818608E-02  0.2136455E+00
        -11   -1    0    0    0    0  0.00000000000E+00  0.00000000000E+00  0.50000499739E+01  0.50000500000E+01  0.51100000000E-03 0.  1.
         11   -1    0    0    0    0 -0.00000000000E+00 -0.00000000000E+00 -0.50000499739E+01  0.50000500000E+01  0.51100000000E-03 0. -1.
         50    1    1    2    0    0 -0.14611773283E-01  0.12351105412E-02 -0.16881145799E-01  0.50000500000E+01  0.50000000000E+01 0.  0.
         50    1    1    2    0    0  0.14611773283E-01 -0.12351105412E-02  0.16881145799E-01  0.50000500000E+01  0.50000000000E+01 0.  1.
</event>
<event>
 4    1  0.4993983E-021  0.5000050E+01  0.7818608E-02  0.2136455E+00
        -11   -1    0    0    0    0  0.00000000000E+00  0.00000000000E+00  0.50000499739E+01  0.50000500000E+01  0.51100000000E-03 0.  1.
         11   -1    0    0    0    0 -0.00000000000E+00 -0.00000000000E+00 -0.50000499739E+01  0.50000500000E+01  0.51100000000E-03 0. -1.
         50    1    1    2    0    0  0.19385247750E-01 -0.11122605556E-01 -0.70874208076E-03  0.50000500000E+01  0.50000000000E+01 0.  1.
         50    1    1    2    0    0 -0.19385247750E-01  0.11122605556E-01  0.70874208076E-03  0.50000500000E+01  0.50000000000E+01 0. -1.
</event>
<event>
 4    1  0.4993983E-021  0.5000050E+01  0.7818608E-02  0.2136455E+00
        -11   -1    0    0    0    0  0.00000000000E+00  0.00000000000E+00  0.50000499739E+01  0.50000500000E+01  0.51100000000E-03 0. -1.
         11   -1    0    0    0    0 -0.00000000000E+00 -0.00000000000E+00 -0.50000499739E+01  0.50000500000E+01  0.51100000000E-03 0.  1.
         50    1    1    2    0    0 -0.88507724902E-02  0.89918035230E-02  0.18461142861E-01  0.50000500000E+01  0.50000000000E+01 0. -1.
         50    1    1    2    0    0  0.88507724902E-02 -0.89918035230E-02 -0.18461142861E-01  0.50000500000E+01  0.50000000000E+01 0.  1.
</event>
<event>
 4    1  0.4993983E-021  0.5000050E+01  0.7818608E-02  0.2136455E+00
        -11   -1    0    0    0    0  0.00000000000E+00  0.00000000000E+00  0.50000499739E+01  0.50000500000E+01  0.51100000000E-03 0. -1.
         11   -1    0    0    0    0 -0.00000000000E+00 -0.00000000000E+00 -0.50000499739E+01  0.50000500000E+01  0.51100000000E-03 0.  1.
         50    1    1    2    0    0 -0.19452656480E-01  0.30319509568E-03  0.11022918333E-01  0.50000500000E+01  0.50000000000E+01 0. -1.
         50    1    1    2    0    0  0.19452656480E-01 -0.30319509568E-03 -0.11022918333E-01  0.50000500000E+01  0.50000000000E+01 0.  1.
</event>
<event>
 4    1  0.4993983E-021  0.5000050E+01  0.7818608E-02  0.2136455E+00
        -11   -1    0    0    0    0  0.00000000000E+00  0.00000000000E+00  0.50000499739E+01  0.50000500000E+01  0.51100000000E-03 0. -1.
         11   -1    0    0    0    0 -0.00000000000E+00 -0.00000000000E+00 -0.50000499739E+01  0.50000500000E+01  0.51100000000E-03 0.  1.
         50    1    1    2    0    0 -0.73462678742E-02  0.17404097923E-01 -0.11963788021E-01  0.50000500000E+01  0.50000000000E+01 0. -1.
         50    1    1    2    0    0  0.73462678742E-02 -0.17404097923E-01  0.11963788021E-01  0.50000500000E+01  0.50000000000E+01 0.  0.
</event>
<event>
 4    1  0.4993983E-021  0.5000050E+01  0.7818608E-02  0.2136455E+00
        -11   -1    0    0    0    0  0.00000000000E+00  0.00000000000E+00  0.50000499739E+01  0.50000500000E+01  0.51100000000E-03 0. -1.
         11   -1    0    0    0    0 -0.00000000000E+00 -0.00000000000E+00 -0.50000499739E+01  0.50000500000E+01  0.51100000000E-03 0.  1.
         50    1    1    2    0    0  0.17070916154E-01  0.40899166934E-02  0.13851314129E-01  0.50000500000E+01  0.50000000000E+01 0.  0.
         50    1    1    2    0    0 -0.17070916154E-01 -0.40899166934E-02 -0.13851314129E-01  0.50000500000E+01  0.50000000000E+01 0.  0.
</event>
<event>
 4    1  0.4993983E-021  0.5000050E+01  0.7818608E-02  0.2136455E+00
        -11   -1    0    0    0    0  0.00000000000E+00  0.00000000000E+00  0.50000499739E+01  0.50000500000E+01  0.51100000000E-03 0.  1.
         11   -1    0    0    0    0 -0.00000000000E+00 -0.00000000000E+00 -0.50000499739E+01  0.50000500000E+01  0.51100000000E-03 0. -1.
         50    1    1    2    0    0 -0.21139326357E-01  0.64048625368E-02 -0.34798156645E-02  0.50000500000E+01  0.50000000000E+01 0.  1.
         50    1    1    2    0    0  0.21139326357E-01 -0.64048625368E-02  0.34798156645E-02  0.50000500000E+01  0.50000000000E+01 0.  0.
</event>
<event>
 4    1  0.4993983E-021  0.5000050E+01  0.7818608E-02  0.2136455E+00
        -11   -1    0    0    0    0  0.00000000000E+00  0.00000000000E+00  0.50000499739E+01  0.50000500000E+01  0.51100000000E-03 0.  1.
         11   -1    0    0    0    0 -0.00000000000E+00 -0.00000000000E+00 -0.50000499739E+01  0.50000500000E+01  0.51100000000E-03 0. -1.
         50    1    1    2    0    0  0.13124565485E-01  0.17487967010E-01 -0.46818042151E-02  0.50000500000E+01  0.50000000000E+01 0. -1.
         50    1    1    2    0    0 -0.13124565485E-01 -0.17487967010E-01  0.46818042151E-02  0.50000500000E+01  0.50000000000E+01 0.  0.
</event>
<event>
 4    1  0.4993983E-021  0.5000050E+01  0.7818608E-02  0.2136455E+00
        -11   -1    0    0    0    0  0.00000000000E+00  0.00000000000E+00  0.50000499739E+01  0.50000500000E+01  0.51100000000E-03 0.  1.
         11   -1    0    0    0    0 -0.00000000000E+00 -0.00000000000E+00 -0.50000499739E+01  0.50000500000E+01  0.51100000000E-03 0. -1.
         50    1    1    2    0    0 -0.14802047509E-01 -0.16549535297E-01  0.26485412943E-02  0.50000500000E+01  0.50000000000E+01 0. -1.
         50    1    1    2    0    0  0.14802047509E-01  0.16549535297E-01 -0.26485412943E-02  0.50000500000E+01  0.50000000000E+01 0.  0.
</event>
<event>
 4    1  0.4993983E-021  0.5000050E+01  0.7818608E-02  0.2136455E+00
        -11   -1    0    0    0    0  0.00000000000E+00  0.00000000000E+00  0.50000499739E+01  0.50000500000E+01  0.51100000000E-03 0.  1.
         11   -1    0    0    0    0 -0.00000000000E+00 -0.00000000000E+00 -0.50000499739E+01  0.50000500000E+01  0.51100000000E-03 0. -1.
         50    1    1    2    0    0 -0.18916764098E-01  0.81388652872E-02  0.87130596179E-02  0.50000500000E+01  0.50000000000E+01 0.  1.
         50    1    1    2    0    0  0.18916764098E-01 -0.81388652872E-02 -0.87130596179E-02  0.50000500000E+01  0.50000000000E+01 0. -1.
</event>
<event>
 4    1  0.4993983E-021  0.5000050E+01  0.7818608E-02  0.2136455E+00
        -11   -1    0    0    0    0  0.00000000000E+00  0.00000000000E+00  0.50000499739E+01  0.50000500000E+01  0.51100000000E-03 0.  1.
         11   -1    0    0    0    0 -0.00000000000E+00 -0.00000000000E+00 -0.50000499739E+01  0.50000500000E+01  0.51100000000E-03 0. -1.
         50    1    1    2    0    0  0.17516370354E-02  0.68442055914E-02 -0.21215350987E-01  0.50000500000E+01  0.50000000000E+01 0. -1.
         50    1    1    2    0    0 -0.17516370354E-02 -0.68442055914E-02  0.21215350987E-01  0.50000500000E+01  0.50000000000E+01 0.  0.
</event>
<event>
 4    1  0.4993983E-021  0.5000050E+01  0.7818608E-02  0.2136455E+00
        -11   -1    0    0    0    0  0.00000000000E+00  0.00000000000E+00  0.50000499739E+01  0.50000500000E+01  0.51100000000E-03 0.  1.
         11   -1    0    0    0    0 -0.00000000000E+00 -0.00000000000E+00 -0.50000499739E+01  0.50000500000E+01  0.51100000000E-03 0. -1.
         50    1    1    2    0    0  0.20901188759E-01 -0.77434100650E-02  0.17839307806E-02  0.50000500000E+01  0.50000000000E+01 0.  1.
         50    1    1    2    0    0 -0.20901188759E-01  0.77434100650E-02 -0.17839307806E-02  0.50000500000E+01  0.50000000000E+01 0. -1.
</event>
<event>
 4    1  0.4993983E-021  0.5000050E+01  0.7818608E-02  0.2136455E+00
        -11   -1    0    0    0    0  0.00000000000E+00  0.00000000000E+00  0.50000499739E+01  0.50000500000E+01  0.51100000000E-03 0. -1.
         11   -1    0    0    0    0 -0.00000000000E+00 -0.00000000000E+00 -0.50000499739E+01  0.50000500000E+01  0.51100000000E-03 0.  1.
         50    1    1    2    0    0  0.14893212963E-01 -0.15025593654E-01  0.72405968654E-02  0.50000500000E+01  0.50000000000E+01 0.  0.
         50    1    1    2    0    0 -0.14893212963E-01  0.15025593654E-01 -0.72405968654E-02  0.50000500000E+01  0.50000000000E+01 0.  1.
</event>
<event>
 4    1  0.4993983E-021  0.5000050E+01  0.7818608E-02  0.2136455E+00
        -11   -1    0    0    0    0  0.00000000000E+00  0.00000000000E+00  0.50000499739E+01  0.50000500000E+01  0.51100000000E-03 0.  1.
         11   -1    0    0    0    0 -0.00000000000E+00 -0.00000000000E+00 -0.50000499739E+01  0.50000500000E+01  0.51100000000E-03 0. -1.
         50    1    1    2    0    0 -0.14003974766E-01  0.41895593887E-02 -0.16921547887E-01  0.50000500000E+01  0.50000000000E+01 0. -1.
         50    1    1    2    0    0  0.14003974766E-01 -0.41895593887E-02  0.16921547887E-01  0.50000500000E+01  0.50000000000E+01 0.  1.
</event>
<event>
 4    1  0.4993983E-021  0.5000050E+01  0.7818608E-02  0.2136455E+00
        -11   -1    0    0    0    0  0.00000000000E+00  0.00000000000E+00  0.50000499739E+01  0.50000500000E+01  0.51100000000E-03 0. -1.
         11   -1    0    0    0    0 -0.00000000000E+00 -0.00000000000E+00 -0.50000499739E+01  0.50000500000E+01  0.51100000000E-03 0.  1.
         50    1    1    2    0    0 -0.99498033138E-02  0.12822247566E-01  0.15381608543E-01  0.50000500000E+01  0.50000000000E+01 0. -1.
         50    1    1    2    0    0  0.99498033138E-02 -0.12822247566E-01 -0.15381608543E-01  0.50000500000E+01  0.50000000000E+01 0.  1.
</event>
<event>
 4    1  0.4993983E-021  0.5000050E+01  0.7818608E-02  0.2136455E+00
        -11   -1    0    0    0    0  0.00000000000E+00  0.00000000000E+00  0.50000499739E+01  0.50000500000E+01  0.51100000000E-03 0.  1.
         11   -1    0    0    0    0 -0.00000000000E+00 -0.00000000000E+00 -0.50000499739E+01  0.50000500000E+01  0.51100000000E-03 0. -1.
         50    1    1    2    0    0 -0.14489407071E-01  0.47350635897E-02  0.16359668564E-01  0.50000500000E+01  0.50000000000E+01 0.  1.
         50    1    1    2    0    0  0.14489407071E-01 -0.47350635897E-02 -0.16359668564E-01  0.50000500000E+01  0.50000000000E+01 0.  1.
</event>
<event>
 4    1  0.4993983E-021  0.5000050E+01  0.7818608E-02  0.2136455E+00
        -11   -1    0    0    0    0  0.00000000000E+00  0.00000000000E+00  0.50000499739E+01  0.50000500000E+01  0.51100000000E-03 0. -1.
         11   -1    0    0    0    0 -0.00000000000E+00 -0.00000000000E+00 -0.50000499739E+01  0.50000500000E+01  0.51100000000E-03 0.  1.
         50    1    1    2    0    0  0.16691674465E-01 -0.49979371203E-02 -0.14014675455E-01  0.50000500000E+01  0.50000000000E+01 0.  1.
         50    1    1    2    0    0 -0.16691674465E-01  0.49979371203E-02  0.14014675455E-01  0.50000500000E+01  0.50000000000E+01 0. -1.
</event>
<event>
 4    1  0.4993983E-021  0.5000050E+01  0.7818608E-02  0.2136455E+00
        -11   -1    0    0    0    0  0.00000000000E+00  0.00000000000E+00  0.50000499739E+01  0.50000500000E+01  0.51100000000E-03 0. -1.
         11   -1    0    0    0    0 -0.00000000000E+00 -0.00000000000E+00 -0.50000499739E+01  0.50000500000E+01  0.51100000000E-03 0.  1.
         50    1    1    2    0    0  0.68183950246E-02  0.15297250178E-01  0.14815739140E-01  0.50000500000E+01  0.50000000000E+01 0. -1.
         50    1    1    2    0    0 -0.68183950246E-02 -0.15297250178E-01 -0.14815739140E-01  0.50000500000E+01  0.50000000000E+01 0.  1.
</event>
<event>
 4    1  0.4993983E-021  0.5000050E+01  0.7818608E-02  0.2136455E+00
        -11   -1    0    0    0    0  0.00000000000E+00  0.00000000000E+00  0.50000499739E+01  0.50000500000E+01  0.51100000000E-03 0.  1.
         11   -1    0    0    0    0 -0.00000000000E+00 -0.00000000000E+00 -0.50000499739E+01  0.50000500000E+01  0.51100000000E-03 0. -1.
         50    1    1    2    0    0  0.44590765854E-02 -0.13434337538E-01 -0.17310046531E-01  0.50000500000E+01  0.50000000000E+01 0.  0.
         50    1    1    2    0    0 -0.44590765854E-02  0.13434337538E-01  0.17310046531E-01  0.50000500000E+01  0.50000000000E+01 0.  0.
</event>
<event>
 4    1  0.4993983E-021  0.5000050E+01  0.7818608E-02  0.2136455E+00
        -11   -1    0    0    0    0  0.00000000000E+00  0.00000000000E+00  0.50000499739E+01  0.50000500000E+01  0.51100000000E-03 0. -1.
         11   -1    0    0    0    0 -0.00000000000E+00 -0.00000000000E+00 -0.50000499739E+01  0.50000500000E+01  0.51100000000E-03 0.  1.
         50    1    1    2    0    0 -0.16977333154E-01 -0.12655068124E-01 -0.71848388818E-02  0.50000500000E+01  0.50000000000E+01 0. -1.
         50    1    1    2    0    0  0.16977333154E-01  0.12655068124E-01  0.71848388818E-02  0.50000500000E+01  0.50000000000E+01 0.  0.
</event>
<event>
 4    1  0.4993983E-021  0.5000050E+01  0.7818608E-02  0.2136455E+00
        -11   -1    0    0    0    0  0.00000000000E+00  0.00000000000E+00  0.50000499739E+01  0.50000500000E+01  0.51100000000E-03 0. -1.
         11   -1    0    0    0    0 -0.00000000000E+00 -0.00000000000E+00 -0.50000499739E+01  0.50000500000E+01  0.51100000000E-03 0.  1.
         50    1    1    2    0    0  0.70702019250E-03  0.49154881960E-03 -0.22344149172E-01  0.50000500000E+01  0.50000000000E+01 0.  1.
         50    1    1    2    0    0 -0.70702019250E-03 -0.49154881960E-03  0.22344149172E-01  0.50000500000E+01  0.50000000000E+01 0.  0.
</event>
<event>
 4    1  0.4993983E-021  0.5000050E+01  0.7818608E-02  0.2136455E+00
        -11   -1    0    0    0    0  0.00000000000E+00  0.00000000000E+00  0.50000499739E+01  0.50000500000E+01  0.51100000000E-03 0.  1.
         11   -1    0    0    0    0 -0.00000000000E+00 -0.00000000000E+00 -0.50000499739E+01  0.50000500000E+01  0.51100000000E-03 0. -1.
         50    1    1    2    0    0  0.10405562258E-01  0.13693796383E-01 -0.14290091488E-01  0.50000500000E+01  0.50000000000E+01 0. -1.
         50    1    1    2    0    0 -0.10405562258E-01 -0.13693796383E-01  0.14290091488E-01  0.50000500000E+01  0.50000000000E+01 0. -1.
</event>
<event>
 4    1  0.4993983E-021  0.5000050E+01  0.7818608E-02  0.2136455E+00
        -11   -1    0    0    0    0  0.00000000000E+00  0.00000000000E+00  0.50000499739E+01  0.50000500000E+01  0.51100000000E-03 0.  1.
         11   -1    0    0    0    0 -0.00000000000E+00 -0.00000000000E+00 -0.50000499739E+01  0.50000500000E+01  0.51100000000E-03 0. -1.
         50    1    1    2    0    0  0.42562747187E-04  0.22080482415E-01  0.35288786806E-02  0.50000500000E+01  0.50000000000E+01 0. -1.
         50    1    1    2    0    0 -0.42562747187E-04 -0.22080482415E-01 -0.35288786806E-02  0.50000500000E+01  0.50000000000E+01 0.  1.
</event>
<event>
 4    1  0.4993983E-021  0.5000050E+01  0.7818608E-02  0.2136455E+00
        -11   -1    0    0    0    0  0.00000000000E+00  0.00000000000E+00  0.50000499739E+01  0.50000500000E+01  0.51100000000E-03 0. -1.
         11   -1    0    0    0    0 -0.00000000000E+00 -0.00000000000E+00 -0.50000499739E+01  0.50000500000E+01  0.51100000000E-03 0.  1.
         50    1    1    2    0    0 -0.94867825348E-02  0.11569574940E-01 -0.16617713225E-01  0.50000500000E+01  0.50000000000E+01 0.  0.
         50    1    1    2    0    0  0.94867825348E-02 -0.11569574940E-01  0.16617713225E-01  0.50000500000E+01  0.50000000000E+01 0.  0.
</event>
<event>
 4    1  0.4993983E-021  0.5000050E+01  0.7818608E-02  0.2136455E+00
        -11   -1    0    0    0    0  0.00000000000E+00  0.00000000000E+00  0.50000499739E+01  0.50000500000E+01  0.51100000000E-03 0.  1.
         11   -1    0    0    0    0 -0.00000000000E+00 -0.00000000000E+00 -0.50000499739E+01  0.50000500000E+01  0.51100000000E-03 0. -1.
         50    1    1    2    0    0  0.16960965421E-01  0.11459008915E-01 -0.90010703059E-02  0.50000500000E+01  0.50000000000E+01 0.  0.
         50    1    1    2    0    0 -0.16960965421E-01 -0.11459008915E-01  0.90010703059E-02  0.50000500000E+01  0.50000000000E+01 0.  0.
</event>
<event>
 4    1  0.4993983E-021  0.5000050E+01  0.7818608E-02  0.2136455E+00
        -11   -1    0    0    0    0  0.00000000000E+00  0.00000000000E+00  0.50000499739E+01  0.50000500000E+01  0.51100000000E-03 0.  1.
         11   -1    0    0    0    0 -0.00000000000E+00 -0.00000000000E+00 -0.50000499739E+01  0.50000500000E+01  0.51100000000E-03 0. -1.
         50    1    1    2    0    0 -0.17989169017E-01  0.10654442304E-01  0.79293856807E-02  0.50000500000E+01  0.50000000000E+01 0.  0.
         50    1    1    2    0    0  0.17989169017E-01 -0.10654442304E-01 -0.79293856807E-02  0.50000500000E+01  0.50000000000E+01 0.  1.
</event>
<event>
 4    1  0.4993983E-021  0.5000050E+01  0.7818608E-02  0.2136455E+00
        -11   -1    0    0    0    0  0.00000000000E+00  0.00000000000E+00  0.50000499739E+01  0.50000500000E+01  0.51100000000E-03 0. -1.
         11   -1    0    0    0    0 -0.00000000000E+00 -0.00000000000E+00 -0.50000499739E+01  0.50000500000E+01  0.51100000000E-03 0.  1.
         50    1    1    2    0    0 -0.20996123109E-01  0.75367025256E-02 -0.15373449221E-02  0.50000500000E+01  0.50000000000E+01 0.  0.
         50    1    1    2    0    0  0.20996123109E-01 -0.75367025256E-02  0.15373449221E-02  0.50000500000E+01  0.50000000000E+01 0. -1.
</event>
<event>
 4    1  0.4993983E-021  0.5000050E+01  0.7818608E-02  0.2136455E+00
        -11   -1    0    0    0    0  0.00000000000E+00  0.00000000000E+00  0.50000499739E+01  0.50000500000E+01  0.51100000000E-03 0. -1.
         11   -1    0    0    0    0 -0.00000000000E+00 -0.00000000000E+00 -0.50000499739E+01  0.50000500000E+01  0.51100000000E-03 0.  1.
         50    1    1    2    0    0  0.16897088333E-01 -0.61654735556E-02  0.13284496291E-01  0.50000500000E+01  0.50000000000E+01 0.  0.
         50    1    1    2    0    0 -0.16897088333E-01  0.61654735556E-02 -0.13284496291E-01  0.50000500000E+01  0.50000000000E+01 0.  0.
</event>
<event>
 4    1  0.4993983E-021  0.5000050E+01  0.7818608E-02  0.2136455E+00
        -11   -1    0    0    0    0  0.00000000000E+00  0.00000000000E+00  0.50000499739E+01  0.50000500000E+01  0.51100000000E-03 0. -1.
         11   -1    0    0    0    0 -0.00000000000E+00 -0.00000000000E+00 -0.50000499739E+01  0.50000500000E+01  0.51100000000E-03 0.  1.
         50    1    1    2    0    0 -0.22043403941E-01 -0.27593665042E-02  0.25449438486E-02  0.50000500000E+01  0.50000000000E+01 0. -1.
         50    1    1    2    0    0  0.22043403941E-01  0.27593665042E-02 -0.25449438486E-02  0.50000500000E+01  0.50000000000E+01 0.  1.
</event>
<event>
 4    1  0.4993983E-021  0.5000050E+01  0.7818608E-02  0.2136455E+00
        -11   -1    0    0    0    0  0.00000000000E+00  0.00000000000E+00  0.50000499739E+01  0.50000500000E+01  0.51100000000E-03 0. -1.
         11   -1    0    0    0    0 -0.00000000000E+00 -0.00000000000E+00 -0.50000499739E+01  0.50000500000E+01  0.51100000000E-03 0.  1.
         50    1    1    2    0    0 -0.52202718661E-02  0.10126085311E-01  0.19240937033E-01  0.50000500000E+01  0.50000000000E+01 0. -1.
         50    1    1    2    0    0  0.52202718661E-02 -0.10126085311E-01 -0.19240937033E-01  0.50000500000E+01  0.50000000000E+01 0.  0.
</event>
<event>
 4    1  0.4993983E-021  0.5000050E+01  0.7818608E-02  0.2136455E+00
        -11   -1    0    0    0    0  0.00000000000E+00  0.00000000000E+00  0.50000499739E+01  0.50000500000E+01  0.51100000000E-03 0.  1.
         11   -1    0    0    0    0 -0.00000000000E+00 -0.00000000000E+00 -0.50000499739E+01  0.50000500000E+01  0.51100000000E-03 0. -1.
         50    1    1    2    0    0  0.96929209953E-02 -0.17853792478E-01  0.93430121870E-02  0.50000500000E+01  0.50000000000E+01 0. -1.
         50    1    1    2    0    0 -0.96929209953E-02  0.17853792478E-01 -0.93430121870E-02  0.50000500000E+01  0.50000000000E+01 0.  0.
</event>
<event>
 4    1  0.4993983E-021  0.5000050E+01  0.7818608E-02  0.2136455E+00
        -11   -1    0    0    0    0  0.00000000000E+00  0.00000000000E+00  0.50000499739E+01  0.50000500000E+01  0.51100000000E-03 0.  1.
         11   -1    0    0    0    0 -0.00000000000E+00 -0.00000000000E+00 -0.50000499739E+01  0.50000500000E+01  0.51100000000E-03 0. -1.
         50    1    1    2    0    0  0.10170170366E-02  0.21566059189E-01 -0.58200745171E-02  0.50000500000E+01  0.50000000000E+01 0. -1.
         50    1    1    2    0    0 -0.10170170366E-02 -0.21566059189E-01  0.58200745171E-02  0.50000500000E+01  0.50000000000E+01 0.  1.
</event>
<event>
 4    1  0.4993983E-021  0.5000050E+01  0.7818608E-02  0.2136455E+00
        -11   -1    0    0    0    0  0.00000000000E+00  0.00000000000E+00  0.50000499739E+01  0.50000500000E+01  0.51100000000E-03 0.  1.
         11   -1    0    0    0    0 -0.00000000000E+00 -0.00000000000E+00 -0.50000499739E+01  0.50000500000E+01  0.51100000000E-03 0. -1.
         50    1    1    2    0    0 -0.74589111845E-02 -0.18434030102E-02  0.20999262113E-01  0.50000500000E+01  0.50000000000E+01 0.  1.
         50    1    1    2    0    0  0.74589111845E-02  0.18434030102E-02 -0.20999262113E-01  0.50000500000E+01  0.50000000000E+01 0.  0.
</event>
<event>
 4    1  0.4993983E-021  0.5000050E+01  0.7818608E-02  0.2136455E+00
        -11   -1    0    0    0    0  0.00000000000E+00  0.00000000000E+00  0.50000499739E+01  0.50000500000E+01  0.51100000000E-03 0. -1.
         11   -1    0    0    0    0 -0.00000000000E+00 -0.00000000000E+00 -0.50000499739E+01  0.50000500000E+01  0.51100000000E-03 0.  1.
         50    1    1    2    0    0 -0.14745243975E-01  0.16627167163E-01  0.24733766916E-02  0.50000500000E+01  0.50000000000E+01 0.  1.
         50    1    1    2    0    0  0.14745243975E-01 -0.16627167163E-01 -0.24733766916E-02  0.50000500000E+01  0.50000000000E+01 0.  0.
</event>
<event>
 4    1  0.4993983E-021  0.5000050E+01  0.7818608E-02  0.2136455E+00
        -11   -1    0    0    0    0  0.00000000000E+00  0.00000000000E+00  0.50000499739E+01  0.50000500000E+01  0.51100000000E-03 0. -1.
         11   -1    0    0    0    0 -0.00000000000E+00 -0.00000000000E+00 -0.50000499739E+01  0.50000500000E+01  0.51100000000E-03 0.  1.
         50    1    1    2    0    0 -0.17945005811E-01 -0.10629719931E-01  0.80615333917E-02  0.50000500000E+01  0.50000000000E+01 0. -1.
         50    1    1    2    0    0  0.17945005811E-01  0.10629719931E-01 -0.80615333917E-02  0.50000500000E+01  0.50000000000E+01 0.  1.
</event>
<event>
 4    1  0.4993983E-021  0.5000050E+01  0.7818608E-02  0.2136455E+00
        -11   -1    0    0    0    0  0.00000000000E+00  0.00000000000E+00  0.50000499739E+01  0.50000500000E+01  0.51100000000E-03 0. -1.
         11   -1    0    0    0    0 -0.00000000000E+00 -0.00000000000E+00 -0.50000499739E+01  0.50000500000E+01  0.51100000000E-03 0.  1.
         50    1    1    2    0    0 -0.92167072574E-02  0.18021837278E-01  0.95009572380E-02  0.50000500000E+01  0.50000000000E+01 0. -1.
         50    1    1    2    0    0  0.92167072574E-02 -0.18021837278E-01 -0.95009572380E-02  0.50000500000E+01  0.50000000000E+01 0.  1.
</event>
<event>
 4    1  0.4993983E-021  0.5000050E+01  0.7818608E-02  0.2136455E+00
        -11   -1    0    0    0    0  0.00000000000E+00  0.00000000000E+00  0.50000499739E+01  0.50000500000E+01  0.51100000000E-03 0.  1.
         11   -1    0    0    0    0 -0.00000000000E+00 -0.00000000000E+00 -0.50000499739E+01  0.50000500000E+01  0.51100000000E-03 0. -1.
         50    1    1    2    0    0 -0.13031990338E-01 -0.70245902419E-02 -0.16757829805E-01  0.50000500000E+01  0.50000000000E+01 0.  0.
         50    1    1    2    0    0  0.13031990338E-01  0.70245902419E-02  0.16757829805E-01  0.50000500000E+01  0.50000000000E+01 0.  0.
</event>
<event>
 4    1  0.4993983E-021  0.5000050E+01  0.7818608E-02  0.2136455E+00
        -11   -1    0    0    0    0  0.00000000000E+00  0.00000000000E+00  0.50000499739E+01  0.50000500000E+01  0.51100000000E-03 0.  1.
         11   -1    0    0    0    0 -0.00000000000E+00 -0.00000000000E+00 -0.50000499739E+01  0.50000500000E+01  0.51100000000E-03 0. -1.
         50    1    1    2    0    0  0.98433800351E-02 -0.19832349043E-01 -0.31286260401E-02  0.50000500000E+01  0.50000000000E+01 0.  0.
         50    1    1    2    0    0 -0.98433800351E-02  0.19832349043E-01  0.31286260401E-02  0.50000500000E+01  0.50000000000E+01 0. -1.
</event>
<event>
 4    1  0.4993983E-021  0.5000050E+01  0.7818608E-02  0.2136455E+00
        -11   -1    0    0    0    0  0.00000000000E+00  0.00000000000E+00  0.50000499739E+01  0.50000500000E+01  0.51100000000E-03 0. -1.
         11   -1    0    0    0    0 -0.00000000000E+00 -0.00000000000E+00 -0.50000499739E+01  0.50000500000E+01  0.51100000000E-03 0.  1.
         50    1    1    2    0    0 -0.54320603424E-02  0.13216220425E-01  0.17199614475E-01  0.50000500000E+01  0.50000000000E+01 0. -1.
         50    1    1    2    0    0  0.54320603424E-02 -0.13216220425E-01 -0.17199614475E-01  0.50000500000E+01  0.50000000000E+01 0.  0.
</event>
<event>
 4    1  0.4993983E-021  0.5000050E+01  0.7818608E-02  0.2136455E+00
        -11   -1    0    0    0    0  0.00000000000E+00  0.00000000000E+00  0.50000499739E+01  0.50000500000E+01  0.51100000000E-03 0.  1.
         11   -1    0    0    0    0 -0.00000000000E+00 -0.00000000000E+00 -0.50000499739E+01  0.50000500000E+01  0.51100000000E-03 0. -1.
         50    1    1    2    0    0 -0.17755434433E-01 -0.10568456055E-01  0.85472091765E-02  0.50000500000E+01  0.50000000000E+01 0. -1.
         50    1    1    2    0    0  0.17755434433E-01  0.10568456055E-01 -0.85472091765E-02  0.50000500000E+01  0.50000000000E+01 0. -1.
</event>
<event>
 4    1  0.4993983E-021  0.5000050E+01  0.7818608E-02  0.2136455E+00
        -11   -1    0    0    0    0  0.00000000000E+00  0.00000000000E+00  0.50000499739E+01  0.50000500000E+01  0.51100000000E-03 0. -1.
         11   -1    0    0    0    0 -0.00000000000E+00 -0.00000000000E+00 -0.50000499739E+01  0.50000500000E+01  0.51100000000E-03 0.  1.
         50    1    1    2    0    0  0.57460964335E-02  0.19712793078E-02  0.21519733587E-01  0.50000500000E+01  0.50000000000E+01 0. -1.
         50    1    1    2    0    0 -0.57460964335E-02 -0.19712793078E-02 -0.21519733587E-01  0.50000500000E+01  0.50000000000E+01 0.  0.
</event>
<event>
 4    1  0.4993983E-021  0.5000050E+01  0.7818608E-02  0.2136455E+00
        -11   -1    0    0    0    0  0.00000000000E+00  0.00000000000E+00  0.50000499739E+01  0.50000500000E+01  0.51100000000E-03 0. -1.
         11   -1    0    0    0    0 -0.00000000000E+00 -0.00000000000E+00 -0.50000499739E+01  0.50000500000E+01  0.51100000000E-03 0.  1.
         50    1    1    2    0    0 -0.12140942132E-01 -0.67463699928E-02  0.17523884160E-01  0.50000500000E+01  0.50000000000E+01 0.  0.
         50    1    1    2    0    0  0.12140942132E-01  0.67463699928E-02 -0.17523884160E-01  0.50000500000E+01  0.50000000000E+01 0.  0.
</event>
<event>
 4    1  0.4993983E-021  0.5000050E+01  0.7818608E-02  0.2136455E+00
        -11   -1    0    0    0    0  0.00000000000E+00  0.00000000000E+00  0.50000499739E+01  0.50000500000E+01  0.51100000000E-03 0.  1.
         11   -1    0    0    0    0 -0.00000000000E+00 -0.00000000000E+00 -0.50000499739E+01  0.50000500000E+01  0.51100000000E-03 0. -1.
         50    1    1    2    0    0 -0.19915770745E-01  0.38800779237E-02  0.93973172204E-02  0.50000500000E+01  0.50000000000E+01 0.  1.
         50    1    1    2    0    0  0.19915770745E-01 -0.38800779237E-02 -0.93973172204E-02  0.50000500000E+01  0.50000000000E+01 0. -1.
</event>
<event>
 4    1  0.4993983E-021  0.5000050E+01  0.7818608E-02  0.2136455E+00
        -11   -1    0    0    0    0  0.00000000000E+00  0.00000000000E+00  0.50000499739E+01  0.50000500000E+01  0.51100000000E-03 0. -1.
         11   -1    0    0    0    0 -0.00000000000E+00 -0.00000000000E+00 -0.50000499739E+01  0.50000500000E+01  0.51100000000E-03 0.  1.
         50    1    1    2    0    0 -0.12607630870E-01 -0.16274247612E-01 -0.87292043455E-02  0.50000500000E+01  0.50000000000E+01 0.  1.
         50    1    1    2    0    0  0.12607630870E-01  0.16274247612E-01  0.87292043455E-02  0.50000500000E+01  0.50000000000E+01 0.  1.
</event>
<event>
 4    1  0.4993983E-021  0.5000050E+01  0.7818608E-02  0.2136455E+00
        -11   -1    0    0    0    0  0.00000000000E+00  0.00000000000E+00  0.50000499739E+01  0.50000500000E+01  0.51100000000E-03 0. -1.
         11   -1    0    0    0    0 -0.00000000000E+00 -0.00000000000E+00 -0.50000499739E+01  0.50000500000E+01  0.51100000000E-03 0.  1.
         50    1    1    2    0    0  0.12450293089E-01 -0.11239001347E-01  0.14787750022E-01  0.50000500000E+01  0.50000000000E+01 0.  1.
         50    1    1    2    0    0 -0.12450293089E-01  0.11239001347E-01 -0.14787750022E-01  0.50000500000E+01  0.50000000000E+01 0.  0.
</event>
<event>
 4    1  0.4993983E-021  0.5000050E+01  0.7818608E-02  0.2136455E+00
        -11   -1    0    0    0    0  0.00000000000E+00  0.00000000000E+00  0.50000499739E+01  0.50000500000E+01  0.51100000000E-03 0.  1.
         11   -1    0    0    0    0 -0.00000000000E+00 -0.00000000000E+00 -0.50000499739E+01  0.50000500000E+01  0.51100000000E-03 0. -1.
         50    1    1    2    0    0 -0.12582307964E-01  0.81997658999E-03 -0.18466609453E-01  0.50000500000E+01  0.50000000000E+01 0. -1.
         50    1    1    2    0    0  0.12582307964E-01 -0.81997658999E-03  0.18466609453E-01  0.50000500000E+01  0.50000000000E+01 0.  0.
</event>
<event>
 4    1  0.4993983E-021  0.5000050E+01  0.7818608E-02  0.2136455E+00
        -11   -1    0    0    0    0  0.00000000000E+00  0.00000000000E+00  0.50000499739E+01  0.50000500000E+01  0.51100000000E-03 0. -1.
         11   -1    0    0    0    0 -0.00000000000E+00 -0.00000000000E+00 -0.50000499739E+01  0.50000500000E+01  0.51100000000E-03 0.  1.
         50    1    1    2    0    0  0.13008957691E-01 -0.45575925967E-02 -0.17606756360E-01  0.50000500000E+01  0.50000000000E+01 0.  1.
         50    1    1    2    0    0 -0.13008957691E-01  0.45575925967E-02  0.17606756360E-01  0.50000500000E+01  0.50000000000E+01 0. -1.
</event>
<event>
 4    1  0.4993983E-021  0.5000050E+01  0.7818608E-02  0.2136455E+00
        -11   -1    0    0    0    0  0.00000000000E+00  0.00000000000E+00  0.50000499739E+01  0.50000500000E+01  0.51100000000E-03 0. -1.
         11   -1    0    0    0    0 -0.00000000000E+00 -0.00000000000E+00 -0.50000499739E+01  0.50000500000E+01  0.51100000000E-03 0.  1.
         50    1    1    2    0    0  0.69392773421E-02 -0.20794407961E-01  0.44092547554E-02  0.50000500000E+01  0.50000000000E+01 0.  0.
         50    1    1    2    0    0 -0.69392773421E-02  0.20794407961E-01 -0.44092547554E-02  0.50000500000E+01  0.50000000000E+01 0.  1.
</event>
<event>
 4    1  0.4993983E-021  0.5000050E+01  0.7818608E-02  0.2136455E+00
        -11   -1    0    0    0    0  0.00000000000E+00  0.00000000000E+00  0.50000499739E+01  0.50000500000E+01  0.51100000000E-03 0. -1.
         11   -1    0    0    0    0 -0.00000000000E+00 -0.00000000000E+00 -0.50000499739E+01  0.50000500000E+01  0.51100000000E-03 0.  1.
         50    1    1    2    0    0  0.40675342884E-02  0.21757998195E-01  0.31697285927E-02  0.50000500000E+01  0.50000000000E+01 0.  1.
         50    1    1    2    0    0 -0.40675342884E-02 -0.21757998195E-01 -0.31697285927E-02  0.50000500000E+01  0.50000000000E+01 0. -1.
</event>
<event>
 4    1  0.4993983E-021  0.5000050E+01  0.7818608E-02  0.2136455E+00
        -11   -1    0    0    0    0  0.00000000000E+00  0.00000000000E+00  0.50000499739E+01  0.50000500000E+01  0.51100000000E-03 0. -1.
         11   -1    0    0    0    0 -0.00000000000E+00 -0.00000000000E+00 -0.50000499739E+01  0.50000500000E+01  0.51100000000E-03 0.  1.
         50    1    1    2    0    0  0.21527610908E-01 -0.59005787419E-02  0.13219830268E-02  0.50000500000E+01  0.50000000000E+01 0.  0.
         50    1    1    2    0    0 -0.21527610908E-01  0.59005787419E-02 -0.13219830268E-02  0.50000500000E+01  0.50000000000E+01 0.  1.
</event>
<event>
 4    1  0.4993983E-021  0.5000050E+01  0.7818608E-02  0.2136455E+00
        -11   -1    0    0    0    0  0.00000000000E+00  0.00000000000E+00  0.50000499739E+01  0.50000500000E+01  0.51100000000E-03 0. -1.
         11   -1    0    0    0    0 -0.00000000000E+00 -0.00000000000E+00 -0.50000499739E+01  0.50000500000E+01  0.51100000000E-03 0.  1.
         50    1    1    2    0    0  0.90834277613E-02 -0.11194143445E-01  0.17093419571E-01  0.50000500000E+01  0.50000000000E+01 0.  0.
         50    1    1    2    0    0 -0.90834277613E-02  0.11194143445E-01 -0.17093419571E-01  0.50000500000E+01  0.50000000000E+01 0.  1.
</event>
<event>
 4    1  0.4993983E-021  0.5000050E+01  0.7818608E-02  0.2136455E+00
        -11   -1    0    0    0    0  0.00000000000E+00  0.00000000000E+00  0.50000499739E+01  0.50000500000E+01  0.51100000000E-03 0.  1.
         11   -1    0    0    0    0 -0.00000000000E+00 -0.00000000000E+00 -0.50000499739E+01  0.50000500000E+01  0.51100000000E-03 0. -1.
         50    1    1    2    0    0  0.50336536014E-02 -0.20951407554E-01  0.59752282728E-02  0.50000500000E+01  0.50000000000E+01 0.  1.
         50    1    1    2    0    0 -0.50336536014E-02  0.20951407554E-01 -0.59752282728E-02  0.50000500000E+01  0.50000000000E+01 0. -1.
</event>
<event>
 4    1  0.4993983E-021  0.5000050E+01  0.7818608E-02  0.2136455E+00
        -11   -1    0    0    0    0  0.00000000000E+00  0.00000000000E+00  0.50000499739E+01  0.50000500000E+01  0.51100000000E-03 0. -1.
         11   -1    0    0    0    0 -0.00000000000E+00 -0.00000000000E+00 -0.50000499739E+01  0.50000500000E+01  0.51100000000E-03 0.  1.
         50    1    1    2    0    0  0.11176790703E-02  0.82107028753E-02  0.20768669957E-01  0.50000500000E+01  0.50000000000E+01 0. -1.
         50    1    1    2    0    0 -0.11176790703E-02 -0.82107028753E-02 -0.20768669957E-01  0.50000500000E+01  0.50000000000E+01 0. -1.
</event>
<event>
 4    1  0.4993983E-021  0.5000050E+01  0.7818608E-02  0.2136455E+00
        -11   -1    0    0    0    0  0.00000000000E+00  0.00000000000E+00  0.50000499739E+01  0.50000500000E+01  0.51100000000E-03 0.  1.
         11   -1    0    0    0    0 -0.00000000000E+00 -0.00000000000E+00 -0.50000499739E+01  0.50000500000E+01  0.51100000000E-03 0. -1.
         50    1    1    2    0    0 -0.19713981618E-01 -0.99856066106E-02  0.34130762372E-02  0.50000500000E+01  0.50000000000E+01 0.  0.
         50    1    1    2    0    0  0.19713981618E-01  0.99856066106E-02 -0.34130762372E-02  0.50000500000E+01  0.50000000000E+01 0.  1.
</event>
<event>
 4    1  0.4993983E-021  0.5000050E+01  0.7818608E-02  0.2136455E+00
        -11   -1    0    0    0    0  0.00000000000E+00  0.00000000000E+00  0.50000499739E+01  0.50000500000E+01  0.51100000000E-03 0. -1.
         11   -1    0    0    0    0 -0.00000000000E+00 -0.00000000000E+00 -0.50000499739E+01  0.50000500000E+01  0.51100000000E-03 0.  1.
         50    1    1    2    0    0  0.92248856096E-02  0.20348970431E-01 -0.90740722894E-03  0.50000500000E+01  0.50000000000E+01 0.  1.
         50    1    1    2    0    0 -0.92248856096E-02 -0.20348970431E-01  0.90740722894E-03  0.50000500000E+01  0.50000000000E+01 0. -1.
</event>
<event>
 4    1  0.4993983E-021  0.5000050E+01  0.7818608E-02  0.2136455E+00
        -11   -1    0    0    0    0  0.00000000000E+00  0.00000000000E+00  0.50000499739E+01  0.50000500000E+01  0.51100000000E-03 0.  1.
         11   -1    0    0    0    0 -0.00000000000E+00 -0.00000000000E+00 -0.50000499739E+01  0.50000500000E+01  0.51100000000E-03 0. -1.
         50    1    1    2    0    0  0.42400387756E-02  0.20647532606E-01  0.74635091240E-02  0.50000500000E+01  0.50000000000E+01 0.  1.
         50    1    1    2    0    0 -0.42400387756E-02 -0.20647532606E-01 -0.74635091240E-02  0.50000500000E+01  0.50000000000E+01 0.  0.
</event>
<event>
 4    1  0.4993983E-021  0.5000050E+01  0.7818608E-02  0.2136455E+00
        -11   -1    0    0    0    0  0.00000000000E+00  0.00000000000E+00  0.50000499739E+01  0.50000500000E+01  0.51100000000E-03 0. -1.
         11   -1    0    0    0    0 -0.00000000000E+00 -0.00000000000E+00 -0.50000499739E+01  0.50000500000E+01  0.51100000000E-03 0.  1.
         50    1    1    2    0    0  0.72926873983E-02 -0.16768495249E-01  0.12869995244E-01  0.50000500000E+01  0.50000000000E+01 0.  0.
         50    1    1    2    0    0 -0.72926873983E-02  0.16768495249E-01 -0.12869995244E-01  0.50000500000E+01  0.50000000000E+01 0. -1.
</event>
<event>
 4    1  0.4993983E-021  0.5000050E+01  0.7818608E-02  0.2136455E+00
        -11   -1    0    0    0    0  0.00000000000E+00  0.00000000000E+00  0.50000499739E+01  0.50000500000E+01  0.51100000000E-03 0. -1.
         11   -1    0    0    0    0 -0.00000000000E+00 -0.00000000000E+00 -0.50000499739E+01  0.50000500000E+01  0.51100000000E-03 0.  1.
         50    1    1    2    0    0 -0.39106495605E-02  0.47617115054E-02 -0.21495009271E-01  0.50000500000E+01  0.50000000000E+01 0.  1.
         50    1    1    2    0    0  0.39106495605E-02 -0.47617115054E-02  0.21495009271E-01  0.50000500000E+01  0.50000000000E+01 0. -1.
</event>
<event>
 4    1  0.4993983E-021  0.5000050E+01  0.7818608E-02  0.2136455E+00
        -11   -1    0    0    0    0  0.00000000000E+00  0.00000000000E+00  0.50000499739E+01  0.50000500000E+01  0.51100000000E-03 0. -1.
         11   -1    0    0    0    0 -0.00000000000E+00 -0.00000000000E+00 -0.50000499739E+01  0.50000500000E+01  0.51100000000E-03 0.  1.
         50    1    1    2    0    0  0.16522016867E-01 -0.10964723323E-01  0.10334423113E-01  0.50000500000E+01  0.50000000000E+01 0.  1.
         50    1    1    2    0    0 -0.16522016867E-01  0.10964723323E-01 -0.10334423113E-01  0.50000500000E+01  0.50000000000E+01 0. -1.
</event>
<event>
 4    1  0.4993983E-021  0.5000050E+01  0.7818608E-02  0.2136455E+00
        -11   -1    0    0    0    0  0.00000000000E+00  0.00000000000E+00  0.50000499739E+01  0.50000500000E+01  0.51100000000E-03 0. -1.
         11   -1    0    0    0    0 -0.00000000000E+00 -0.00000000000E+00 -0.50000499739E+01  0.50000500000E+01  0.51100000000E-03 0.  1.
         50    1    1    2    0    0 -0.14898092585E-01  0.16338039538E-01  0.33343367204E-02  0.50000500000E+01  0.50000000000E+01 0.  1.
         50    1    1    2    0    0  0.14898092585E-01 -0.16338039538E-01 -0.33343367204E-02  0.50000500000E+01  0.50000000000E+01 0. -1.
</event>
<event>
 4    1  0.4993983E-021  0.5000050E+01  0.7818608E-02  0.2136455E+00
        -11   -1    0    0    0    0  0.00000000000E+00  0.00000000000E+00  0.50000499739E+01  0.50000500000E+01  0.51100000000E-03 0.  1.
         11   -1    0    0    0    0 -0.00000000000E+00 -0.00000000000E+00 -0.50000499739E+01  0.50000500000E+01  0.51100000000E-03 0. -1.
         50    1    1    2    0    0  0.54926414682E-02 -0.15311102515E-01 -0.15342865752E-01  0.50000500000E+01  0.50000000000E+01 0.  0.
         50    1    1    2    0    0 -0.54926414682E-02  0.15311102515E-01  0.15342865752E-01  0.50000500000E+01  0.50000000000E+01 0.  0.
</event>
<event>
 4    1  0.4993983E-021  0.5000050E+01  0.7818608E-02  0.2136455E+00
        -11   -1    0    0    0    0  0.00000000000E+00  0.00000000000E+00  0.50000499739E+01  0.50000500000E+01  0.51100000000E-03 0.  1.
         11   -1    0    0    0    0 -0.00000000000E+00 -0.00000000000E+00 -0.50000499739E+01  0.50000500000E+01  0.51100000000E-03 0. -1.
         50    1    1    2    0    0  0.12810229135E-02  0.13054644831E-01  0.18109051014E-01  0.50000500000E+01  0.50000000000E+01 0. -1.
         50    1    1    2    0    0 -0.12810229135E-02 -0.13054644831E-01 -0.18109051014E-01  0.50000500000E+01  0.50000000000E+01 0.  0.
</event>
<event>
 4    1  0.4993983E-021  0.5000050E+01  0.7818608E-02  0.2136455E+00
        -11   -1    0    0    0    0  0.00000000000E+00  0.00000000000E+00  0.50000499739E+01  0.50000500000E+01  0.51100000000E-03 0. -1.
         11   -1    0    0    0    0 -0.00000000000E+00 -0.00000000000E+00 -0.50000499739E+01  0.50000500000E+01  0.51100000000E-03 0.  1.
         50    1    1    2    0    0  0.12273507779E-01 -0.74903798770E-02 -0.17124769081E-01  0.50000500000E+01  0.50000000000E+01 0.  0.
         50    1    1    2    0    0 -0.12273507779E-01  0.74903798770E-02  0.17124769081E-01  0.50000500000E+01  0.50000000000E+01 0.  1.
</event>
<event>
 4    1  0.4993983E-021  0.5000050E+01  0.7818608E-02  0.2136455E+00
        -11   -1    0    0    0    0  0.00000000000E+00  0.00000000000E+00  0.50000499739E+01  0.50000500000E+01  0.51100000000E-03 0.  1.
         11   -1    0    0    0    0 -0.00000000000E+00 -0.00000000000E+00 -0.50000499739E+01  0.50000500000E+01  0.51100000000E-03 0. -1.
         50    1    1    2    0    0 -0.64011086816E-02  0.19389151981E-01  0.91153218876E-02  0.50000500000E+01  0.50000000000E+01 0.  0.
         50    1    1    2    0    0  0.64011086816E-02 -0.19389151981E-01 -0.91153218876E-02  0.50000500000E+01  0.50000000000E+01 0.  0.
</event>
<event>
 4    1  0.4993983E-021  0.5000050E+01  0.7818608E-02  0.2136455E+00
        -11   -1    0    0    0    0  0.00000000000E+00  0.00000000000E+00  0.50000499739E+01  0.50000500000E+01  0.51100000000E-03 0.  1.
         11   -1    0    0    0    0 -0.00000000000E+00 -0.00000000000E+00 -0.50000499739E+01  0.50000500000E+01  0.51100000000E-03 0. -1.
         50    1    1    2    0    0 -0.21736309229E-01 -0.35686709806E-02  0.38470701244E-02  0.50000500000E+01  0.50000000000E+01 0.  1.
         50    1    1    2    0    0  0.21736309229E-01  0.35686709806E-02 -0.38470701244E-02  0.50000500000E+01  0.50000000000E+01 0.  0.
</event>
<event>
 4    1  0.4993983E-021  0.5000050E+01  0.7818608E-02  0.2136455E+00
        -11   -1    0    0    0    0  0.00000000000E+00  0.00000000000E+00  0.50000499739E+01  0.50000500000E+01  0.51100000000E-03 0. -1.
         11   -1    0    0    0    0 -0.00000000000E+00 -0.00000000000E+00 -0.50000499739E+01  0.50000500000E+01  0.51100000000E-03 0.  1.
         50    1    1    2    0    0 -0.15770514724E-01 -0.89761287857E-02  0.13066081178E-01  0.50000500000E+01  0.50000000000E+01 0. -1.
         50    1    1    2    0    0  0.15770514724E-01  0.89761287857E-02 -0.13066081178E-01  0.50000500000E+01  0.50000000000E+01 0.  1.
</event>
<event>
 4    1  0.4993983E-021  0.5000050E+01  0.7818608E-02  0.2136455E+00
        -11   -1    0    0    0    0  0.00000000000E+00  0.00000000000E+00  0.50000499739E+01  0.50000500000E+01  0.51100000000E-03 0. -1.
         11   -1    0    0    0    0 -0.00000000000E+00 -0.00000000000E+00 -0.50000499739E+01  0.50000500000E+01  0.51100000000E-03 0.  1.
         50    1    1    2    0    0 -0.52860985626E-02 -0.13414310125E-02  0.21685484196E-01  0.50000500000E+01  0.50000000000E+01 0.  0.
         50    1    1    2    0    0  0.52860985626E-02  0.13414310125E-02 -0.21685484196E-01  0.50000500000E+01  0.50000000000E+01 0.  1.
</event>
<event>
 4    1  0.4993983E-021  0.5000050E+01  0.7818608E-02  0.2136455E+00
        -11   -1    0    0    0    0  0.00000000000E+00  0.00000000000E+00  0.50000499739E+01  0.50000500000E+01  0.51100000000E-03 0. -1.
         11   -1    0    0    0    0 -0.00000000000E+00 -0.00000000000E+00 -0.50000499739E+01  0.50000500000E+01  0.51100000000E-03 0.  1.
         50    1    1    2    0    0  0.11538860524E-01 -0.11706159289E-01 -0.15159915320E-01  0.50000500000E+01  0.50000000000E+01 0.  0.
         50    1    1    2    0    0 -0.11538860524E-01  0.11706159289E-01  0.15159915320E-01  0.50000500000E+01  0.50000000000E+01 0.  0.
</event>
<event>
 4    1  0.4993983E-021  0.5000050E+01  0.7818608E-02  0.2136455E+00
        -11   -1    0    0    0    0  0.00000000000E+00  0.00000000000E+00  0.50000499739E+01  0.50000500000E+01  0.51100000000E-03 0.  1.
         11   -1    0    0    0    0 -0.00000000000E+00 -0.00000000000E+00 -0.50000499739E+01  0.50000500000E+01  0.51100000000E-03 0. -1.
         50    1    1    2    0    0  0.10146760595E-01 -0.17521080509E-01  0.94898623401E-02  0.50000500000E+01  0.50000000000E+01 0.  0.
         50    1    1    2    0    0 -0.10146760595E-01  0.17521080509E-01 -0.94898623401E-02  0.50000500000E+01  0.50000000000E+01 0.  0.
</event>
<event>
 4    1  0.4993983E-021  0.5000050E+01  0.7818608E-02  0.2136455E+00
        -11   -1    0    0    0    0  0.00000000000E+00  0.00000000000E+00  0.50000499739E+01  0.50000500000E+01  0.51100000000E-03 0.  1.
         11   -1    0    0    0    0 -0.00000000000E+00 -0.00000000000E+00 -0.50000499739E+01  0.50000500000E+01  0.51100000000E-03 0. -1.
         50    1    1    2    0    0  0.48902603680E-02  0.18552514745E-01 -0.11484426418E-01  0.50000500000E+01  0.50000000000E+01 0.  1.
         50    1    1    2    0    0 -0.48902603680E-02 -0.18552514745E-01  0.11484426418E-01  0.50000500000E+01  0.50000000000E+01 0.  0.
</event>
<event>
 4    1  0.4993983E-021  0.5000050E+01  0.7818608E-02  0.2136455E+00
        -11   -1    0    0    0    0  0.00000000000E+00  0.00000000000E+00  0.50000499739E+01  0.50000500000E+01  0.51100000000E-03 0. -1.
         11   -1    0    0    0    0 -0.00000000000E+00 -0.00000000000E+00 -0.50000499739E+01  0.50000500000E+01  0.51100000000E-03 0.  1.
         50    1    1    2    0    0  0.16419970534E-01 -0.65016417950E-02  0.13715528485E-01  0.50000500000E+01  0.50000000000E+01 0. -1.
         50    1    1    2    0    0 -0.16419970534E-01  0.65016417950E-02 -0.13715528485E-01  0.50000500000E+01  0.50000000000E+01 0.  1.
</event>
<event>
 4    1  0.4993983E-021  0.5000050E+01  0.7818608E-02  0.2136455E+00
        -11   -1    0    0    0    0  0.00000000000E+00  0.00000000000E+00  0.50000499739E+01  0.50000500000E+01  0.51100000000E-03 0. -1.
         11   -1    0    0    0    0 -0.00000000000E+00 -0.00000000000E+00 -0.50000499739E+01  0.50000500000E+01  0.51100000000E-03 0.  1.
         50    1    1    2    0    0  0.68946790703E-02 -0.15958966104E-01  0.14063331803E-01  0.50000500000E+01  0.50000000000E+01 0.  1.
         50    1    1    2    0    0 -0.68946790703E-02  0.15958966104E-01 -0.14063331803E-01  0.50000500000E+01  0.50000000000E+01 0.  0.
</event>
<event>
 4    1  0.4993983E-021  0.5000050E+01  0.7818608E-02  0.2136455E+00
        -11   -1    0    0    0    0  0.00000000000E+00  0.00000000000E+00  0.50000499739E+01  0.50000500000E+01  0.51100000000E-03 0. -1.
         11   -1    0    0    0    0 -0.00000000000E+00 -0.00000000000E+00 -0.50000499739E+01  0.50000500000E+01  0.51100000000E-03 0.  1.
         50    1    1    2    0    0 -0.20886388029E-01 -0.30330014503E-02 -0.73866228623E-02  0.50000500000E+01  0.50000000000E+01 0.  1.
         50    1    1    2    0    0  0.20886388029E-01  0.30330014503E-02  0.73866228623E-02  0.50000500000E+01  0.50000000000E+01 0. -1.
</event>
<event>
 4    1  0.4993983E-021  0.5000050E+01  0.7818608E-02  0.2136455E+00
        -11   -1    0    0    0    0  0.00000000000E+00  0.00000000000E+00  0.50000499739E+01  0.50000500000E+01  0.51100000000E-03 0. -1.
         11   -1    0    0    0    0 -0.00000000000E+00 -0.00000000000E+00 -0.50000499739E+01  0.50000500000E+01  0.51100000000E-03 0.  1.
         50    1    1    2    0    0  0.20127619556E-01 -0.46001365952E-02  0.85860453245E-02  0.50000500000E+01  0.50000000000E+01 0.  1.
         50    1    1    2    0    0 -0.20127619556E-01  0.46001365952E-02 -0.85860453245E-02  0.50000500000E+01  0.50000000000E+01 0.  0.
</event>
<event>
 4    1  0.4993983E-021  0.5000050E+01  0.7818608E-02  0.2136455E+00
        -11   -1    0    0    0    0  0.00000000000E+00  0.00000000000E+00  0.50000499739E+01  0.50000500000E+01  0.51100000000E-03 0. -1.
         11   -1    0    0    0    0 -0.00000000000E+00 -0.00000000000E+00 -0.50000499739E+01  0.50000500000E+01  0.51100000000E-03 0.  1.
         50    1    1    2    0    0  0.12277327720E-01  0.10899336234E-01  0.15181376542E-01  0.50000500000E+01  0.50000000000E+01 0. -1.
         50    1    1    2    0    0 -0.12277327720E-01 -0.10899336234E-01 -0.15181376542E-01  0.50000500000E+01  0.50000000000E+01 0.  1.
</event>
<event>
 4    1  0.4993983E-021  0.5000050E+01  0.7818608E-02  0.2136455E+00
        -11   -1    0    0    0    0  0.00000000000E+00  0.00000000000E+00  0.50000499739E+01  0.50000500000E+01  0.51100000000E-03 0. -1.
         11   -1    0    0    0    0 -0.00000000000E+00 -0.00000000000E+00 -0.50000499739E+01  0.50000500000E+01  0.51100000000E-03 0.  1.
         50    1    1    2    0    0  0.11062069922E-01  0.53098608743E-02  0.18693273831E-01  0.50000500000E+01  0.50000000000E+01 0. -1.
         50    1    1    2    0    0 -0.11062069922E-01 -0.53098608743E-02 -0.18693273831E-01  0.50000500000E+01  0.50000000000E+01 0.  1.
</event>
<event>
 4    1  0.4993983E-021  0.5000050E+01  0.7818608E-02  0.2136455E+00
        -11   -1    0    0    0    0  0.00000000000E+00  0.00000000000E+00  0.50000499739E+01  0.50000500000E+01  0.51100000000E-03 0.  1.
         11   -1    0    0    0    0 -0.00000000000E+00 -0.00000000000E+00 -0.50000499739E+01  0.50000500000E+01  0.51100000000E-03 0. -1.
         50    1    1    2    0    0  0.18620421484E-01  0.12374819863E-01  0.38240964936E-03  0.50000500000E+01  0.50000000000E+01 0.  1.
         50    1    1    2    0    0 -0.18620421484E-01 -0.12374819863E-01 -0.38240964936E-03  0.50000500000E+01  0.50000000000E+01 0.  0.
</event>
<event>
 4    1  0.4993983E-021  0.5000050E+01  0.7818608E-02  0.2136455E+00
        -11   -1    0    0    0    0  0.00000000000E+00  0.00000000000E+00  0.50000499739E+01  0.50000500000E+01  0.51100000000E-03 0. -1.
         11   -1    0    0    0    0 -0.00000000000E+00 -0.00000000000E+00 -0.50000499739E+01  0.50000500000E+01  0.51100000000E-03 0.  1.
         50    1    1    2    0    0 -0.22613505055E-02 -0.22231337882E-01  0.81019123887E-03  0.50000500000E+01  0.50000000000E+01 0.  1.
         50    1    1    2    0    0  0.22613505055E-02  0.22231337882E-01 -0.81019123887E-03  0.50000500000E+01  0.50000000000E+01 0. -1.
</event>
<event>
 4    1  0.4993983E-021  0.5000050E+01  0.7818608E-02  0.2136455E+00
        -11   -1    0    0    0    0  0.00000000000E+00  0.00000000000E+00  0.50000499739E+01  0.50000500000E+01  0.51100000000E-03 0. -1.
         11   -1    0    0    0    0 -0.00000000000E+00 -0.00000000000E+00 -0.50000499739E+01  0.50000500000E+01  0.51100000000E-03 0.  1.
         50    1    1    2    0    0 -0.36389841673E-02 -0.20118198183E-02 -0.21970727690E-01  0.50000500000E+01  0.50000000000E+01 0.  1.
         50    1    1    2    0    0  0.36389841673E-02  0.20118198183E-02  0.21970727690E-01  0.50000500000E+01  0.50000000000E+01 0.  0.
</event>
<event>
 4    1  0.4993983E-021  0.5000050E+01  0.7818608E-02  0.2136455E+00
        -11   -1    0    0    0    0  0.00000000000E+00  0.00000000000E+00  0.50000499739E+01  0.50000500000E+01  0.51100000000E-03 0.  1.
         11   -1    0    0    0    0 -0.00000000000E+00 -0.00000000000E+00 -0.50000499739E+01  0.50000500000E+01  0.51100000000E-03 0. -1.
         50    1    1    2    0    0  0.11858223754E-01  0.16527351768E-01  0.92861010612E-02  0.50000500000E+01  0.50000000000E+01 0.  0.
         50    1    1    2    0    0 -0.11858223754E-01 -0.16527351768E-01 -0.92861010612E-02  0.50000500000E+01  0.50000000000E+01 0.  1.
</event>
<event>
 4    1  0.4993983E-021  0.5000050E+01  0.7818608E-02  0.2136455E+00
        -11   -1    0    0    0    0  0.00000000000E+00  0.00000000000E+00  0.50000499739E+01  0.50000500000E+01  0.51100000000E-03 0. -1.
         11   -1    0    0    0    0 -0.00000000000E+00 -0.00000000000E+00 -0.50000499739E+01  0.50000500000E+01  0.51100000000E-03 0.  1.
         50    1    1    2    0    0 -0.19987368486E-01 -0.43682778880E-02  0.90236217398E-02  0.50000500000E+01  0.50000000000E+01 0.  0.
         50    1    1    2    0    0  0.19987368486E-01  0.43682778880E-02 -0.90236217398E-02  0.50000500000E+01  0.50000000000E+01 0. -1.
</event>
<event>
 4    1  0.4993983E-021  0.5000050E+01  0.7818608E-02  0.2136455E+00
        -11   -1    0    0    0    0  0.00000000000E+00  0.00000000000E+00  0.50000499739E+01  0.50000500000E+01  0.51100000000E-03 0.  1.
         11   -1    0    0    0    0 -0.00000000000E+00 -0.00000000000E+00 -0.50000499739E+01  0.50000500000E+01  0.51100000000E-03 0. -1.
         50    1    1    2    0    0  0.74664654977E-02  0.46507992625E-02  0.20557832064E-01  0.50000500000E+01  0.50000000000E+01 0.  1.
         50    1    1    2    0    0 -0.74664654977E-02 -0.46507992625E-02 -0.20557832064E-01  0.50000500000E+01  0.50000000000E+01 0.  0.
</event>
<event>
 4    1  0.4993983E-021  0.5000050E+01  0.7818608E-02  0.2136455E+00
        -11   -1    0    0    0    0  0.00000000000E+00  0.00000000000E+00  0.50000499739E+01  0.50000500000E+01  0.51100000000E-03 0.  1.
         11   -1    0    0    0    0 -0.00000000000E+00 -0.00000000000E+00 -0.50000499739E+01  0.50000500000E+01  0.51100000000E-03 0. -1.
         50    1    1    2    0    0  0.22040017065E-01  0.32104046501E-02 -0.19832926495E-02  0.50000500000E+01  0.50000000000E+01 0. -1.
         50    1    1    2    0    0 -0.22040017065E-01 -0.32104046501E-02  0.19832926495E-02  0.50000500000E+01  0.50000000000E+01 0.  1.
</event>
<event>
 4    1  0.4993983E-021  0.5000050E+01  0.7818608E-02  0.2136455E+00
        -11   -1    0    0    0    0  0.00000000000E+00  0.00000000000E+00  0.50000499739E+01  0.50000500000E+01  0.51100000000E-03 0.  1.
         11   -1    0    0    0    0 -0.00000000000E+00 -0.00000000000E+00 -0.50000499739E+01  0.50000500000E+01  0.51100000000E-03 0. -1.
         50    1    1    2    0    0 -0.18249570626E-01  0.99877328861E-02  0.81976132961E-02  0.50000500000E+01  0.50000000000E+01 0.  1.
         50    1    1    2    0    0  0.18249570626E-01 -0.99877328861E-02 -0.81976132961E-02  0.50000500000E+01  0.50000000000E+01 0.  1.
</event>
<event>
 4    1  0.4993983E-021  0.5000050E+01  0.7818608E-02  0.2136455E+00
        -11   -1    0    0    0    0  0.00000000000E+00  0.00000000000E+00  0.50000499739E+01  0.50000500000E+01  0.51100000000E-03 0.  1.
         11   -1    0    0    0    0 -0.00000000000E+00 -0.00000000000E+00 -0.50000499739E+01  0.50000500000E+01  0.51100000000E-03 0. -1.
         50    1    1    2    0    0  0.14354499872E-01 -0.37690315012E-02 -0.16725586237E-01  0.50000500000E+01  0.50000000000E+01 0. -1.
         50    1    1    2    0    0 -0.14354499872E-01  0.37690315012E-02  0.16725586237E-01  0.50000500000E+01  0.50000000000E+01 0.  1.
</event>
<event>
 4    1  0.4993983E-021  0.5000050E+01  0.7818608E-02  0.2136455E+00
        -11   -1    0    0    0    0  0.00000000000E+00  0.00000000000E+00  0.50000499739E+01  0.50000500000E+01  0.51100000000E-03 0.  1.
         11   -1    0    0    0    0 -0.00000000000E+00 -0.00000000000E+00 -0.50000499739E+01  0.50000500000E+01  0.51100000000E-03 0. -1.
         50    1    1    2    0    0  0.67577077567E-02  0.10975788146E-01 -0.18272054084E-01  0.50000500000E+01  0.50000000000E+01 0. -1.
         50    1    1    2    0    0 -0.67577077567E-02 -0.10975788146E-01  0.18272054084E-01  0.50000500000E+01  0.50000000000E+01 0.  1.
</event>
<event>
 4    1  0.4993983E-021  0.5000050E+01  0.7818608E-02  0.2136455E+00
        -11   -1    0    0    0    0  0.00000000000E+00  0.00000000000E+00  0.50000499739E+01  0.50000500000E+01  0.51100000000E-03 0.  1.
         11   -1    0    0    0    0 -0.00000000000E+00 -0.00000000000E+00 -0.50000499739E+01  0.50000500000E+01  0.51100000000E-03 0. -1.
         50    1    1    2    0    0  0.57932421633E-02 -0.21476922020E-01 -0.22765469015E-02  0.50000500000E+01  0.50000000000E+01 0.  0.
         50    1    1    2    0    0 -0.57932421633E-02  0.21476922020E-01  0.22765469015E-02  0.50000500000E+01  0.50000000000E+01 0. -1.
</event>
<event>
 4    1  0.4993983E-021  0.5000050E+01  0.7818608E-02  0.2136455E+00
        -11   -1    0    0    0    0  0.00000000000E+00  0.00000000000E+00  0.50000499739E+01  0.50000500000E+01  0.51100000000E-03 0.  1.
         11   -1    0    0    0    0 -0.00000000000E+00 -0.00000000000E+00 -0.50000499739E+01  0.50000500000E+01  0.51100000000E-03 0. -1.
         50    1    1    2    0    0  0.20340187202E-01 -0.61937373597E-02 -0.69222035596E-02  0.50000500000E+01  0.50000000000E+01 0. -1.
         50    1    1    2    0    0 -0.20340187202E-01  0.61937373597E-02  0.69222035596E-02  0.50000500000E+01  0.50000000000E+01 0.  0.
</event>
<event>
 4    1  0.4993983E-021  0.5000050E+01  0.7818608E-02  0.2136455E+00
        -11   -1    0    0    0    0  0.00000000000E+00  0.00000000000E+00  0.50000499739E+01  0.50000500000E+01  0.51100000000E-03 0.  1.
         11   -1    0    0    0    0 -0.00000000000E+00 -0.00000000000E+00 -0.50000499739E+01  0.50000500000E+01  0.51100000000E-03 0. -1.
         50    1    1    2    0    0 -0.20666612429E-01 -0.48566572127E-02 -0.70218595408E-02  0.50000500000E+01  0.50000000000E+01 0. -1.
         50    1    1    2    0    0  0.20666612429E-01  0.48566572127E-02  0.70218595408E-02  0.50000500000E+01  0.50000000000E+01 0.  1.
</event>
<event>
 4    1  0.4993983E-021  0.5000050E+01  0.7818608E-02  0.2136455E+00
        -11   -1    0    0    0    0  0.00000000000E+00  0.00000000000E+00  0.50000499739E+01  0.50000500000E+01  0.51100000000E-03 0. -1.
         11   -1    0    0    0    0 -0.00000000000E+00 -0.00000000000E+00 -0.50000499739E+01  0.50000500000E+01  0.51100000000E-03 0.  1.
         50    1    1    2    0    0  0.12970509446E-01 -0.13205758684E-01 -0.12544971992E-01  0.50000500000E+01  0.50000000000E+01 0.  0.
         50    1    1    2    0    0 -0.12970509446E-01  0.13205758684E-01  0.12544971992E-01  0.50000500000E+01  0.50000000000E+01 0.  0.
</event>
<event>
 4    1  0.4993983E-021  0.5000050E+01  0.7818608E-02  0.2136455E+00
        -11   -1    0    0    0    0  0.00000000000E+00  0.00000000000E+00  0.50000499739E+01  0.50000500000E+01  0.51100000000E-03 0. -1.
         11   -1    0    0    0    0 -0.00000000000E+00 -0.00000000000E+00 -0.50000499739E+01  0.50000500000E+01  0.51100000000E-03 0.  1.
         50    1    1    2    0    0  0.59535183213E-02 -0.18568660526E-01 -0.10943626724E-01  0.50000500000E+01  0.50000000000E+01 0.  0.
         50    1    1    2    0    0 -0.59535183213E-02  0.18568660526E-01  0.10943626724E-01  0.50000500000E+01  0.50000000000E+01 0.  1.
</event>
<event>
 4    1  0.4993983E-021  0.5000050E+01  0.7818608E-02  0.2136455E+00
        -11   -1    0    0    0    0  0.00000000000E+00  0.00000000000E+00  0.50000499739E+01  0.50000500000E+01  0.51100000000E-03 0. -1.
         11   -1    0    0    0    0 -0.00000000000E+00 -0.00000000000E+00 -0.50000499739E+01  0.50000500000E+01  0.51100000000E-03 0.  1.
         50    1    1    2    0    0  0.60366114042E-02  0.18512629795E-01  0.10992923216E-01  0.50000500000E+01  0.50000000000E+01 0. -1.
         50    1    1    2    0    0 -0.60366114042E-02 -0.18512629795E-01 -0.10992923216E-01  0.50000500000E+01  0.50000000000E+01 0.  1.
</event>
<event>
 4    1  0.4993983E-021  0.5000050E+01  0.7818608E-02  0.2136455E+00
        -11   -1    0    0    0    0  0.00000000000E+00  0.00000000000E+00  0.50000499739E+01  0.50000500000E+01  0.51100000000E-03 0. -1.
         11   -1    0    0    0    0 -0.00000000000E+00 -0.00000000000E+00 -0.50000499739E+01  0.50000500000E+01  0.51100000000E-03 0.  1.
         50    1    1    2    0    0  0.21433422710E-01 -0.63195398748E-02 -0.82116180964E-03  0.50000500000E+01  0.50000000000E+01 0.  1.
         50    1    1    2    0    0 -0.21433422710E-01  0.63195398748E-02  0.82116180964E-03  0.50000500000E+01  0.50000000000E+01 0. -1.
</event>
<event>
 4    1  0.4993983E-021  0.5000050E+01  0.7818608E-02  0.2136455E+00
        -11   -1    0    0    0    0  0.00000000000E+00  0.00000000000E+00  0.50000499739E+01  0.50000500000E+01  0.51100000000E-03 0. -1.
         11   -1    0    0    0    0 -0.00000000000E+00 -0.00000000000E+00 -0.50000499739E+01  0.50000500000E+01  0.51100000000E-03 0.  1.
         50    1    1    2    0    0  0.84464285098E-02  0.48476392819E-02 -0.20128604989E-01  0.50000500000E+01  0.50000000000E+01 0.  1.
         50    1    1    2    0    0 -0.84464285098E-02 -0.48476392819E-02  0.20128604989E-01  0.50000500000E+01  0.50000000000E+01 0.  0.
</event>
<event>
 4    1  0.4993983E-021  0.5000050E+01  0.7818608E-02  0.2136455E+00
        -11   -1    0    0    0    0  0.00000000000E+00  0.00000000000E+00  0.50000499739E+01  0.50000500000E+01  0.51100000000E-03 0.  1.
         11   -1    0    0    0    0 -0.00000000000E+00 -0.00000000000E+00 -0.50000499739E+01  0.50000500000E+01  0.51100000000E-03 0. -1.
         50    1    1    2    0    0 -0.21823211625E-01  0.25406594877E-03  0.48667632823E-02  0.50000500000E+01  0.50000000000E+01 0.  1.
         50    1    1    2    0    0  0.21823211625E-01 -0.25406594877E-03 -0.48667632823E-02  0.50000500000E+01  0.50000000000E+01 0. -1.
</event>
<event>
 4    1  0.4993983E-021  0.5000050E+01  0.7818608E-02  0.2136455E+00
        -11   -1    0    0    0    0  0.00000000000E+00  0.00000000000E+00  0.50000499739E+01  0.50000500000E+01  0.51100000000E-03 0. -1.
         11   -1    0    0    0    0 -0.00000000000E+00 -0.00000000000E+00 -0.50000499739E+01  0.50000500000E+01  0.51100000000E-03 0.  1.
         50    1    1    2    0    0 -0.19790711920E-03  0.19924640464E-01  0.10147513743E-01  0.50000500000E+01  0.50000000000E+01 0. -1.
         50    1    1    2    0    0  0.19790711920E-03 -0.19924640464E-01 -0.10147513743E-01  0.50000500000E+01  0.50000000000E+01 0.  1.
</event>
<event>
 4    1  0.4993983E-021  0.5000050E+01  0.7818608E-02  0.2136455E+00
        -11   -1    0    0    0    0  0.00000000000E+00  0.00000000000E+00  0.50000499739E+01  0.50000500000E+01  0.51100000000E-03 0. -1.
         11   -1    0    0    0    0 -0.00000000000E+00 -0.00000000000E+00 -0.50000499739E+01  0.50000500000E+01  0.51100000000E-03 0.  1.
         50    1    1    2    0    0 -0.88083056840E-02  0.10165172900E-01 -0.17862964784E-01  0.50000500000E+01  0.50000000000E+01 0. -1.
         50    1    1    2    0    0  0.88083056840E-02 -0.10165172900E-01  0.17862964784E-01  0.50000500000E+01  0.50000000000E+01 0.  1.
</event>
<event>
 4    1  0.4993983E-021  0.5000050E+01  0.7818608E-02  0.2136455E+00
        -11   -1    0    0    0    0  0.00000000000E+00  0.00000000000E+00  0.50000499739E+01  0.50000500000E+01  0.51100000000E-03 0.  1.
         11   -1    0    0    0    0 -0.00000000000E+00 -0.00000000000E+00 -0.50000499739E+01  0.50000500000E+01  0.51100000000E-03 0. -1.
         50    1    1    2    0    0  0.99405917844E-03  0.19253714958E-01 -0.11327347732E-01  0.50000500000E+01  0.50000000000E+01 0. -1.
         50    1    1    2    0    0 -0.99405917844E-03 -0.19253714958E-01  0.11327347732E-01  0.50000500000E+01  0.50000000000E+01 0.  1.
</event>
<event>
 4    1  0.4993983E-021  0.5000050E+01  0.7818608E-02  0.2136455E+00
        -11   -1    0    0    0    0  0.00000000000E+00  0.00000000000E+00  0.50000499739E+01  0.50000500000E+01  0.51100000000E-03 0.  1.
         11   -1    0    0    0    0 -0.00000000000E+00 -0.00000000000E+00 -0.50000499739E+01  0.50000500000E+01  0.51100000000E-03 0. -1.
         50    1    1    2    0    0  0.13389626870E-01 -0.17318757662E-01 -0.45586209881E-02  0.50000500000E+01  0.50000000000E+01 0.  1.
         50    1    1    2    0    0 -0.13389626870E-01  0.17318757662E-01  0.45586209881E-02  0.50000500000E+01  0.50000000000E+01 0. -1.
</event>
<event>
 4    1  0.4993983E-021  0.5000050E+01  0.7818608E-02  0.2136455E+00
        -11   -1    0    0    0    0  0.00000000000E+00  0.00000000000E+00  0.50000499739E+01  0.50000500000E+01  0.51100000000E-03 0. -1.
         11   -1    0    0    0    0 -0.00000000000E+00 -0.00000000000E+00 -0.50000499739E+01  0.50000500000E+01  0.51100000000E-03 0.  1.
         50    1    1    2    0    0  0.19342338780E-01 -0.89255893403E-02  0.67978147538E-02  0.50000500000E+01  0.50000000000E+01 0.  1.
         50    1    1    2    0    0 -0.19342338780E-01  0.89255893403E-02 -0.67978147538E-02  0.50000500000E+01  0.50000000000E+01 0.  0.
</event>
<event>
 4    1  0.4993983E-021  0.5000050E+01  0.7818608E-02  0.2136455E+00
        -11   -1    0    0    0    0  0.00000000000E+00  0.00000000000E+00  0.50000499739E+01  0.50000500000E+01  0.51100000000E-03 0. -1.
         11   -1    0    0    0    0 -0.00000000000E+00 -0.00000000000E+00 -0.50000499739E+01  0.50000500000E+01  0.51100000000E-03 0.  1.
         50    1    1    2    0    0  0.17171922605E-01  0.12224288439E-01 -0.74628644769E-02  0.50000500000E+01  0.50000000000E+01 0.  1.
         50    1    1    2    0    0 -0.17171922605E-01 -0.12224288439E-01  0.74628644769E-02  0.50000500000E+01  0.50000000000E+01 0. -1.
</event>
<event>
 4    1  0.4993983E-021  0.5000050E+01  0.7818608E-02  0.2136455E+00
        -11   -1    0    0    0    0  0.00000000000E+00  0.00000000000E+00  0.50000499739E+01  0.50000500000E+01  0.51100000000E-03 0.  1.
         11   -1    0    0    0    0 -0.00000000000E+00 -0.00000000000E+00 -0.50000499739E+01  0.50000500000E+01  0.51100000000E-03 0. -1.
         50    1    1    2    0    0  0.15529028388E-01 -0.12905875412E-01  0.96067766268E-02  0.50000500000E+01  0.50000000000E+01 0.  1.
         50    1    1    2    0    0 -0.15529028388E-01  0.12905875412E-01 -0.96067766268E-02  0.50000500000E+01  0.50000000000E+01 0. -1.
</event>
<event>
 4    1  0.4993983E-021  0.5000050E+01  0.7818608E-02  0.2136455E+00
        -11   -1    0    0    0    0  0.00000000000E+00  0.00000000000E+00  0.50000499739E+01  0.50000500000E+01  0.51100000000E-03 0. -1.
         11   -1    0    0    0    0 -0.00000000000E+00 -0.00000000000E+00 -0.50000499739E+01  0.50000500000E+01  0.51100000000E-03 0.  1.
         50    1    1    2    0    0 -0.17648336228E-01 -0.11391260587E-01 -0.76666753296E-02  0.50000500000E+01  0.50000000000E+01 0.  1.
         50    1    1    2    0    0  0.17648336228E-01  0.11391260587E-01  0.76666753296E-02  0.50000500000E+01  0.50000000000E+01 0. -1.
</event>
<event>
 4    1  0.4993983E-021  0.5000050E+01  0.7818608E-02  0.2136455E+00
        -11   -1    0    0    0    0  0.00000000000E+00  0.00000000000E+00  0.50000499739E+01  0.50000500000E+01  0.51100000000E-03 0. -1.
         11   -1    0    0    0    0 -0.00000000000E+00 -0.00000000000E+00 -0.50000499739E+01  0.50000500000E+01  0.51100000000E-03 0.  1.
         50    1    1    2    0    0  0.19527243757E-01 -0.16358728051E-02 -0.10770941065E-01  0.50000500000E+01  0.50000000000E+01 0.  1.
         50    1    1    2    0    0 -0.19527243757E-01  0.16358728051E-02  0.10770941065E-01  0.50000500000E+01  0.50000000000E+01 0. -1.
</event>
<event>
 4    1  0.4993983E-021  0.5000050E+01  0.7818608E-02  0.2136455E+00
        -11   -1    0    0    0    0  0.00000000000E+00  0.00000000000E+00  0.50000499739E+01  0.50000500000E+01  0.51100000000E-03 0.  1.
         11   -1    0    0    0    0 -0.00000000000E+00 -0.00000000000E+00 -0.50000499739E+01  0.50000500000E+01  0.51100000000E-03 0. -1.
         50    1    1    2    0    0  0.55962465531E-02 -0.11008651917E-01  0.18641193832E-01  0.50000500000E+01  0.50000000000E+01 0.  0.
         50    1    1    2    0    0 -0.55962465531E-02  0.11008651917E-01 -0.18641193832E-01  0.50000500000E+01  0.50000000000E+01 0.  0.
</event>
<event>
 4    1  0.4993983E-021  0.5000050E+01  0.7818608E-02  0.2136455E+00
        -11   -1    0    0    0    0  0.00000000000E+00  0.00000000000E+00  0.50000499739E+01  0.50000500000E+01  0.51100000000E-03 0. -1.
         11   -1    0    0    0    0 -0.00000000000E+00 -0.00000000000E+00 -0.50000499739E+01  0.50000500000E+01  0.51100000000E-03 0.  1.
         50    1    1    2    0    0  0.63071512551E-02  0.46328692089E-02 -0.20946571699E-01  0.50000500000E+01  0.50000000000E+01 0. -1.
         50    1    1    2    0    0 -0.63071512551E-02 -0.46328692089E-02  0.20946571699E-01  0.50000500000E+01  0.50000000000E+01 0. -1.
</event>
<event>
 4    1  0.4993983E-021  0.5000050E+01  0.7818608E-02  0.2136455E+00
        -11   -1    0    0    0    0  0.00000000000E+00  0.00000000000E+00  0.50000499739E+01  0.50000500000E+01  0.51100000000E-03 0. -1.
         11   -1    0    0    0    0 -0.00000000000E+00 -0.00000000000E+00 -0.50000499739E+01  0.50000500000E+01  0.51100000000E-03 0.  1.
         50    1    1    2    0    0 -0.12915275129E-01  0.13530145411E-01 -0.12252890822E-01  0.50000500000E+01  0.50000000000E+01 0.  1.
         50    1    1    2    0    0  0.12915275129E-01 -0.13530145411E-01  0.12252890822E-01  0.50000500000E+01  0.50000000000E+01 0. -1.
</event>
<event>
 4    1  0.4993983E-021  0.5000050E+01  0.7818608E-02  0.2136455E+00
        -11   -1    0    0    0    0  0.00000000000E+00  0.00000000000E+00  0.50000499739E+01  0.50000500000E+01  0.51100000000E-03 0.  1.
         11   -1    0    0    0    0 -0.00000000000E+00 -0.00000000000E+00 -0.50000499739E+01  0.50000500000E+01  0.51100000000E-03 0. -1.
         50    1    1    2    0    0 -0.20242056692E-01  0.35643129162E-02 -0.88066630631E-02  0.50000500000E+01  0.50000000000E+01 0.  1.
         50    1    1    2    0    0  0.20242056692E-01 -0.35643129162E-02  0.88066630631E-02  0.50000500000E+01  0.50000000000E+01 0.  1.
</event>
<event>
 4    1  0.4993983E-021  0.5000050E+01  0.7818608E-02  0.2136455E+00
        -11   -1    0    0    0    0  0.00000000000E+00  0.00000000000E+00  0.50000499739E+01  0.50000500000E+01  0.51100000000E-03 0.  1.
         11   -1    0    0    0    0 -0.00000000000E+00 -0.00000000000E+00 -0.50000499739E+01  0.50000500000E+01  0.51100000000E-03 0. -1.
         50    1    1    2    0    0 -0.37697260259E-03 -0.11532565063E-01 -0.19153598480E-01  0.50000500000E+01  0.50000000000E+01 0.  0.
         50    1    1    2    0    0  0.37697260259E-03  0.11532565063E-01  0.19153598480E-01  0.50000500000E+01  0.50000000000E+01 0.  1.
</event>
<event>
 4    1  0.4993983E-021  0.5000050E+01  0.7818608E-02  0.2136455E+00
        -11   -1    0    0    0    0  0.00000000000E+00  0.00000000000E+00  0.50000499739E+01  0.50000500000E+01  0.51100000000E-03 0.  1.
         11   -1    0    0    0    0 -0.00000000000E+00 -0.00000000000E+00 -0.50000499739E+01  0.50000500000E+01  0.51100000000E-03 0. -1.
         50    1    1    2    0    0 -0.85935062626E-02 -0.58040523389E-02 -0.19810783088E-01  0.50000500000E+01  0.50000000000E+01 0.  0.
         50    1    1    2    0    0  0.85935062626E-02  0.58040523389E-02  0.19810783088E-01  0.50000500000E+01  0.50000000000E+01 0.  1.
</event>
<event>
 4    1  0.4993983E-021  0.5000050E+01  0.7818608E-02  0.2136455E+00
        -11   -1    0    0    0    0  0.00000000000E+00  0.00000000000E+00  0.50000499739E+01  0.50000500000E+01  0.51100000000E-03 0. -1.
         11   -1    0    0    0    0 -0.00000000000E+00 -0.00000000000E+00 -0.50000499739E+01  0.50000500000E+01  0.51100000000E-03 0.  1.
         50    1    1    2    0    0  0.17300515416E-01 -0.17743793523E-02  0.14055114523E-01  0.50000500000E+01  0.50000000000E+01 0.  1.
         50    1    1    2    0    0 -0.17300515416E-01  0.17743793523E-02 -0.14055114523E-01  0.50000500000E+01  0.50000000000E+01 0.  0.
</event>
<event>
 4    1  0.4993983E-021  0.5000050E+01  0.7818608E-02  0.2136455E+00
        -11   -1    0    0    0    0  0.00000000000E+00  0.00000000000E+00  0.50000499739E+01  0.50000500000E+01  0.51100000000E-03 0.  1.
         11   -1    0    0    0    0 -0.00000000000E+00 -0.00000000000E+00 -0.50000499739E+01  0.50000500000E+01  0.51100000000E-03 0. -1.
         50    1    1    2    0    0 -0.81346709186E-02  0.13899971030E-01  0.15511944894E-01  0.50000500000E+01  0.50000000000E+01 0.  1.
         50    1    1    2    0    0  0.81346709186E-02 -0.13899971030E-01 -0.15511944894E-01  0.50000500000E+01  0.50000000000E+01 0.  0.
</event>
<event>
 4    1  0.4993983E-021  0.5000050E+01  0.7818608E-02  0.2136455E+00
        -11   -1    0    0    0    0  0.00000000000E+00  0.00000000000E+00  0.50000499739E+01  0.50000500000E+01  0.51100000000E-03 0.  1.
         11   -1    0    0    0    0 -0.00000000000E+00 -0.00000000000E+00 -0.50000499739E+01  0.50000500000E+01  0.51100000000E-03 0. -1.
         50    1    1    2    0    0 -0.18396458613E-01 -0.33422397416E-02 -0.12263859262E-01  0.50000500000E+01  0.50000000000E+01 0.  1.
         50    1    1    2    0    0  0.18396458613E-01  0.33422397416E-02  0.12263859262E-01  0.50000500000E+01  0.50000000000E+01 0.  1.
</event>
<event>
 4    1  0.4993983E-021  0.5000050E+01  0.7818608E-02  0.2136455E+00
        -11   -1    0    0    0    0  0.00000000000E+00  0.00000000000E+00  0.50000499739E+01  0.50000500000E+01  0.51100000000E-03 0. -1.
         11   -1    0    0    0    0 -0.00000000000E+00 -0.00000000000E+00 -0.50000499739E+01  0.50000500000E+01  0.51100000000E-03 0.  1.
         50    1    1    2    0    0 -0.19393934003E-01  0.11017659237E-01  0.15776592915E-02  0.50000500000E+01  0.50000000000E+01 0.  1.
         50    1    1    2    0    0  0.19393934003E-01 -0.11017659237E-01 -0.15776592915E-02  0.50000500000E+01  0.50000000000E+01 0. -1.
</event>
<event>
 4    1  0.4993983E-021  0.5000050E+01  0.7818608E-02  0.2136455E+00
        -11   -1    0    0    0    0  0.00000000000E+00  0.00000000000E+00  0.50000499739E+01  0.50000500000E+01  0.51100000000E-03 0.  1.
         11   -1    0    0    0    0 -0.00000000000E+00 -0.00000000000E+00 -0.50000499739E+01  0.50000500000E+01  0.51100000000E-03 0. -1.
         50    1    1    2    0    0  0.18549941618E-01  0.10274520142E-01  0.70948151352E-02  0.50000500000E+01  0.50000000000E+01 0. -1.
         50    1    1    2    0    0 -0.18549941618E-01 -0.10274520142E-01 -0.70948151352E-02  0.50000500000E+01  0.50000000000E+01 0.  1.
</event>
<event>
 4    1  0.4993983E-021  0.5000050E+01  0.7818608E-02  0.2136455E+00
        -11   -1    0    0    0    0  0.00000000000E+00  0.00000000000E+00  0.50000499739E+01  0.50000500000E+01  0.51100000000E-03 0.  1.
         11   -1    0    0    0    0 -0.00000000000E+00 -0.00000000000E+00 -0.50000499739E+01  0.50000500000E+01  0.51100000000E-03 0. -1.
         50    1    1    2    0    0  0.14609500090E-01 -0.50116444751E-02  0.16169366926E-01  0.50000500000E+01  0.50000000000E+01 0. -1.
         50    1    1    2    0    0 -0.14609500090E-01  0.50116444751E-02 -0.16169366926E-01  0.50000500000E+01  0.50000000000E+01 0.  0.
</event>
<event>
 4    1  0.4993983E-021  0.5000050E+01  0.7818608E-02  0.2136455E+00
        -11   -1    0    0    0    0  0.00000000000E+00  0.00000000000E+00  0.50000499739E+01  0.50000500000E+01  0.51100000000E-03 0.  1.
         11   -1    0    0    0    0 -0.00000000000E+00 -0.00000000000E+00 -0.50000499739E+01  0.50000500000E+01  0.51100000000E-03 0. -1.
         50    1    1    2    0    0 -0.42642904706E-02 -0.21300815614E-01  0.53003378139E-02  0.50000500000E+01  0.50000000000E+01 0.  1.
         50    1    1    2    0    0  0.42642904706E-02  0.21300815614E-01 -0.53003378139E-02  0.50000500000E+01  0.50000000000E+01 0. -1.
</event>
<event>
 4    1  0.4993983E-021  0.5000050E+01  0.7818608E-02  0.2136455E+00
        -11   -1    0    0    0    0  0.00000000000E+00  0.00000000000E+00  0.50000499739E+01  0.50000500000E+01  0.51100000000E-03 0. -1.
         11   -1    0    0    0    0 -0.00000000000E+00 -0.00000000000E+00 -0.50000499739E+01  0.50000500000E+01  0.51100000000E-03 0.  1.
         50    1    1    2    0    0  0.14058638371E-01 -0.13218600439E-01 -0.11297158475E-01  0.50000500000E+01  0.50000000000E+01 0. -1.
         50    1    1    2    0    0 -0.14058638371E-01  0.13218600439E-01  0.11297158475E-01  0.50000500000E+01  0.50000000000E+01 0.  1.
</event>
<event>
 4    1  0.4993983E-021  0.5000050E+01  0.7818608E-02  0.2136455E+00
        -11   -1    0    0    0    0  0.00000000000E+00  0.00000000000E+00  0.50000499739E+01  0.50000500000E+01  0.51100000000E-03 0.  1.
         11   -1    0    0    0    0 -0.00000000000E+00 -0.00000000000E+00 -0.50000499739E+01  0.50000500000E+01  0.51100000000E-03 0. -1.
         50    1    1    2    0    0  0.69455876355E-02 -0.50542169139E-02 -0.20645004330E-01  0.50000500000E+01  0.50000000000E+01 0.  0.
         50    1    1    2    0    0 -0.69455876355E-02  0.50542169139E-02  0.20645004330E-01  0.50000500000E+01  0.50000000000E+01 0.  1.
</event>
<event>
 4    1  0.4993983E-021  0.5000050E+01  0.7818608E-02  0.2136455E+00
        -11   -1    0    0    0    0  0.00000000000E+00  0.00000000000E+00  0.50000499739E+01  0.50000500000E+01  0.51100000000E-03 0. -1.
         11   -1    0    0    0    0 -0.00000000000E+00 -0.00000000000E+00 -0.50000499739E+01  0.50000500000E+01  0.51100000000E-03 0.  1.
         50    1    1    2    0    0 -0.54916199351E-02 -0.17827131800E-01  0.12330368294E-01  0.50000500000E+01  0.50000000000E+01 0. -1.
         50    1    1    2    0    0  0.54916199351E-02  0.17827131800E-01 -0.12330368294E-01  0.50000500000E+01  0.50000000000E+01 0.  1.
</event>
<event>
 4    1  0.4993983E-021  0.5000050E+01  0.7818608E-02  0.2136455E+00
        -11   -1    0    0    0    0  0.00000000000E+00  0.00000000000E+00  0.50000499739E+01  0.50000500000E+01  0.51100000000E-03 0.  1.
         11   -1    0    0    0    0 -0.00000000000E+00 -0.00000000000E+00 -0.50000499739E+01  0.50000500000E+01  0.51100000000E-03 0. -1.
         50    1    1    2    0    0 -0.21839099143E-01 -0.46844672033E-02  0.10545215130E-02  0.50000500000E+01  0.50000000000E+01 0.  0.
         50    1    1    2    0    0  0.21839099143E-01  0.46844672033E-02 -0.10545215130E-02  0.50000500000E+01  0.50000000000E+01 0.  1.
</event>
<event>
 4    1  0.4993983E-021  0.5000050E+01  0.7818608E-02  0.2136455E+00
        -11   -1    0    0    0    0  0.00000000000E+00  0.00000000000E+00  0.50000499739E+01  0.50000500000E+01  0.51100000000E-03 0.  1.
         11   -1    0    0    0    0 -0.00000000000E+00 -0.00000000000E+00 -0.50000499739E+01  0.50000500000E+01  0.51100000000E-03 0. -1.
         50    1    1    2    0    0 -0.13421111903E-01  0.63938870140E-02 -0.16703127376E-01  0.50000500000E+01  0.50000000000E+01 0. -1.
         50    1    1    2    0    0  0.13421111903E-01 -0.63938870140E-02  0.16703127376E-01  0.50000500000E+01  0.50000000000E+01 0.  1.
</event>
<event>
 4    1  0.4993983E-021  0.5000050E+01  0.7818608E-02  0.2136455E+00
        -11   -1    0    0    0    0  0.00000000000E+00  0.00000000000E+00  0.50000499739E+01  0.50000500000E+01  0.51100000000E-03 0.  1.
         11   -1    0    0    0    0 -0.00000000000E+00 -0.00000000000E+00 -0.50000499739E+01  0.50000500000E+01  0.51100000000E-03 0. -1.
         50    1    1    2    0    0 -0.21284880455E-01 -0.54258025988E-02 -0.41853351338E-02  0.50000500000E+01  0.50000000000E+01 0.  1.
         50    1    1    2    0    0  0.21284880455E-01  0.54258025988E-02  0.41853351338E-02  0.50000500000E+01  0.50000000000E+01 0.  0.
</event>
<event>
 4    1  0.4993983E-021  0.5000050E+01  0.7818608E-02  0.2136455E+00
        -11   -1    0    0    0    0  0.00000000000E+00  0.00000000000E+00  0.50000499739E+01  0.50000500000E+01  0.51100000000E-03 0.  1.
         11   -1    0    0    0    0 -0.00000000000E+00 -0.00000000000E+00 -0.50000499739E+01  0.50000500000E+01  0.51100000000E-03 0. -1.
         50    1    1    2    0    0 -0.53632368274E-02  0.15315144306E-01 -0.15384555424E-01  0.50000500000E+01  0.50000000000E+01 0. -1.
         50    1    1    2    0    0  0.53632368274E-02 -0.15315144306E-01  0.15384555424E-01  0.50000500000E+01  0.50000000000E+01 0.  1.
</event>
<event>
 4    1  0.4993983E-021  0.5000050E+01  0.7818608E-02  0.2136455E+00
        -11   -1    0    0    0    0  0.00000000000E+00  0.00000000000E+00  0.50000499739E+01  0.50000500000E+01  0.51100000000E-03 0. -1.
         11   -1    0    0    0    0 -0.00000000000E+00 -0.00000000000E+00 -0.50000499739E+01  0.50000500000E+01  0.51100000000E-03 0.  1.
         50    1    1    2    0    0  0.11294041358E-01  0.16771677113E-01 -0.95476686492E-02  0.50000500000E+01  0.50000000000E+01 0. -1.
         50    1    1    2    0    0 -0.11294041358E-01 -0.16771677113E-01  0.95476686492E-02  0.50000500000E+01  0.50000000000E+01 0. -1.
</event>
<event>
 4    1  0.4993983E-021  0.5000050E+01  0.7818608E-02  0.2136455E+00
        -11   -1    0    0    0    0  0.00000000000E+00  0.00000000000E+00  0.50000499739E+01  0.50000500000E+01  0.51100000000E-03 0.  1.
         11   -1    0    0    0    0 -0.00000000000E+00 -0.00000000000E+00 -0.50000499739E+01  0.50000500000E+01  0.51100000000E-03 0. -1.
         50    1    1    2    0    0 -0.15538476309E-01  0.30783558695E-02  0.15782331233E-01  0.50000500000E+01  0.50000000000E+01 0. -1.
         50    1    1    2    0    0  0.15538476309E-01 -0.30783558695E-02 -0.15782331233E-01  0.50000500000E+01  0.50000000000E+01 0.  0.
</event>
<event>
 4    1  0.4993983E-021  0.5000050E+01  0.7818608E-02  0.2136455E+00
        -11   -1    0    0    0    0  0.00000000000E+00  0.00000000000E+00  0.50000499739E+01  0.50000500000E+01  0.51100000000E-03 0. -1.
         11   -1    0    0    0    0 -0.00000000000E+00 -0.00000000000E+00 -0.50000499739E+01  0.50000500000E+01  0.51100000000E-03 0.  1.
         50    1    1    2    0    0 -0.13068462028E-01 -0.11998625643E-01  0.13610686349E-01  0.50000500000E+01  0.50000000000E+01 0. -1.
         50    1    1    2    0    0  0.13068462028E-01  0.11998625643E-01 -0.13610686349E-01  0.50000500000E+01  0.50000000000E+01 0.  1.
</event>
<event>
 4    1  0.4993983E-021  0.5000050E+01  0.7818608E-02  0.2136455E+00
        -11   -1    0    0    0    0  0.00000000000E+00  0.00000000000E+00  0.50000499739E+01  0.50000500000E+01  0.51100000000E-03 0. -1.
         11   -1    0    0    0    0 -0.00000000000E+00 -0.00000000000E+00 -0.50000499739E+01  0.50000500000E+01  0.51100000000E-03 0.  1.
         50    1    1    2    0    0 -0.16725474804E-01 -0.39502565390E-02 -0.14305819300E-01  0.50000500000E+01  0.50000000000E+01 0.  1.
         50    1    1    2    0    0  0.16725474804E-01  0.39502565390E-02  0.14305819300E-01  0.50000500000E+01  0.50000000000E+01 0. -1.
</event>
<event>
 4    1  0.4993983E-021  0.5000050E+01  0.7818608E-02  0.2136455E+00
        -11   -1    0    0    0    0  0.00000000000E+00  0.00000000000E+00  0.50000499739E+01  0.50000500000E+01  0.51100000000E-03 0.  1.
         11   -1    0    0    0    0 -0.00000000000E+00 -0.00000000000E+00 -0.50000499739E+01  0.50000500000E+01  0.51100000000E-03 0. -1.
         50    1    1    2    0    0  0.79335312748E-02  0.61898210299E-02  0.19968667886E-01  0.50000500000E+01  0.50000000000E+01 0.  1.
         50    1    1    2    0    0 -0.79335312748E-02 -0.61898210299E-02 -0.19968667886E-01  0.50000500000E+01  0.50000000000E+01 0.  0.
</event>
<event>
 4    1  0.4993983E-021  0.5000050E+01  0.7818608E-02  0.2136455E+00
        -11   -1    0    0    0    0  0.00000000000E+00  0.00000000000E+00  0.50000499739E+01  0.50000500000E+01  0.51100000000E-03 0.  1.
         11   -1    0    0    0    0 -0.00000000000E+00 -0.00000000000E+00 -0.50000499739E+01  0.50000500000E+01  0.51100000000E-03 0. -1.
         50    1    1    2    0    0 -0.11302312444E-02 -0.12191660192E-02  0.22298850005E-01  0.50000500000E+01  0.50000000000E+01 0.  0.
         50    1    1    2    0    0  0.11302312444E-02  0.12191660192E-02 -0.22298850005E-01  0.50000500000E+01  0.50000000000E+01 0. -1.
</event>
<event>
 4    1  0.4993983E-021  0.5000050E+01  0.7818608E-02  0.2136455E+00
        -11   -1    0    0    0    0  0.00000000000E+00  0.00000000000E+00  0.50000499739E+01  0.50000500000E+01  0.51100000000E-03 0. -1.
         11   -1    0    0    0    0 -0.00000000000E+00 -0.00000000000E+00 -0.50000499739E+01  0.50000500000E+01  0.51100000000E-03 0.  1.
         50    1    1    2    0    0  0.34999598515E-02  0.21538773879E-01 -0.48820078702E-02  0.50000500000E+01  0.50000000000E+01 0. -1.
         50    1    1    2    0    0 -0.34999598515E-02 -0.21538773879E-01  0.48820078702E-02  0.50000500000E+01  0.50000000000E+01 0.  0.
</event>
<event>
 4    1  0.4993983E-021  0.5000050E+01  0.7818608E-02  0.2136455E+00
        -11   -1    0    0    0    0  0.00000000000E+00  0.00000000000E+00  0.50000499739E+01  0.50000500000E+01  0.51100000000E-03 0.  1.
         11   -1    0    0    0    0 -0.00000000000E+00 -0.00000000000E+00 -0.50000499739E+01  0.50000500000E+01  0.51100000000E-03 0. -1.
         50    1    1    2    0    0  0.44086842695E-03 -0.18882390015E-01 -0.11969272423E-01  0.50000500000E+01  0.50000000000E+01 0. -1.
         50    1    1    2    0    0 -0.44086842695E-03  0.18882390015E-01  0.11969272423E-01  0.50000500000E+01  0.50000000000E+01 0.  1.
</event>
<event>
 4    1  0.4993983E-021  0.5000050E+01  0.7818608E-02  0.2136455E+00
        -11   -1    0    0    0    0  0.00000000000E+00  0.00000000000E+00  0.50000499739E+01  0.50000500000E+01  0.51100000000E-03 0.  1.
         11   -1    0    0    0    0 -0.00000000000E+00 -0.00000000000E+00 -0.50000499739E+01  0.50000500000E+01  0.51100000000E-03 0. -1.
         50    1    1    2    0    0  0.83635224338E-02 -0.19775130264E-01 -0.62448551267E-02  0.50000500000E+01  0.50000000000E+01 0. -1.
         50    1    1    2    0    0 -0.83635224338E-02  0.19775130264E-01  0.62448551267E-02  0.50000500000E+01  0.50000000000E+01 0.  1.
</event>
<event>
 4    1  0.4993983E-021  0.5000050E+01  0.7818608E-02  0.2136455E+00
        -11   -1    0    0    0    0  0.00000000000E+00  0.00000000000E+00  0.50000499739E+01  0.50000500000E+01  0.51100000000E-03 0. -1.
         11   -1    0    0    0    0 -0.00000000000E+00 -0.00000000000E+00 -0.50000499739E+01  0.50000500000E+01  0.51100000000E-03 0.  1.
         50    1    1    2    0    0  0.67174778399E-03 -0.21530392923E-01 -0.59994529325E-02  0.50000500000E+01  0.50000000000E+01 0. -1.
         50    1    1    2    0    0 -0.67174778399E-03  0.21530392923E-01  0.59994529325E-02  0.50000500000E+01  0.50000000000E+01 0.  1.
</event>
<event>
 4    1  0.4993983E-021  0.5000050E+01  0.7818608E-02  0.2136455E+00
        -11   -1    0    0    0    0  0.00000000000E+00  0.00000000000E+00  0.50000499739E+01  0.50000500000E+01  0.51100000000E-03 0. -1.
         11   -1    0    0    0    0 -0.00000000000E+00 -0.00000000000E+00 -0.50000499739E+01  0.50000500000E+01  0.51100000000E-03 0.  1.
         50    1    1    2    0    0 -0.49222297498E-02  0.21227507550E-01 -0.50166799268E-02  0.50000500000E+01  0.50000000000E+01 0.  1.
         50    1    1    2    0    0  0.49222297498E-02 -0.21227507550E-01  0.50166799268E-02  0.50000500000E+01  0.50000000000E+01 0. -1.
</event>
<event>
 4    1  0.4993983E-021  0.5000050E+01  0.7818608E-02  0.2136455E+00
        -11   -1    0    0    0    0  0.00000000000E+00  0.00000000000E+00  0.50000499739E+01  0.50000500000E+01  0.51100000000E-03 0.  1.
         11   -1    0    0    0    0 -0.00000000000E+00 -0.00000000000E+00 -0.50000499739E+01  0.50000500000E+01  0.51100000000E-03 0. -1.
         50    1    1    2    0    0 -0.51907065419E-02  0.42456280596E-02  0.21331519120E-01  0.50000500000E+01  0.50000000000E+01 0.  1.
         50    1    1    2    0    0  0.51907065419E-02 -0.42456280596E-02 -0.21331519120E-01  0.50000500000E+01  0.50000000000E+01 0.  0.
</event>
<event>
 4    1  0.4993983E-021  0.5000050E+01  0.7818608E-02  0.2136455E+00
        -11   -1    0    0    0    0  0.00000000000E+00  0.00000000000E+00  0.50000499739E+01  0.50000500000E+01  0.51100000000E-03 0. -1.
         11   -1    0    0    0    0 -0.00000000000E+00 -0.00000000000E+00 -0.50000499739E+01  0.50000500000E+01  0.51100000000E-03 0.  1.
         50    1    1    2    0    0  0.60973787614E-03  0.90130973645E-02 -0.20454701064E-01  0.50000500000E+01  0.50000000000E+01 0.  1.
         50    1    1    2    0    0 -0.60973787614E-03 -0.90130973645E-02  0.20454701064E-01  0.50000500000E+01  0.50000000000E+01 0.  0.
</event>
<event>
 4    1  0.4993983E-021  0.5000050E+01  0.7818608E-02  0.2136455E+00
        -11   -1    0    0    0    0  0.00000000000E+00  0.00000000000E+00  0.50000499739E+01  0.50000500000E+01  0.51100000000E-03 0. -1.
         11   -1    0    0    0    0 -0.00000000000E+00 -0.00000000000E+00 -0.50000499739E+01  0.50000500000E+01  0.51100000000E-03 0.  1.
         50    1    1    2    0    0  0.11337421037E-01 -0.13746606450E-01  0.13509115269E-01  0.50000500000E+01  0.50000000000E+01 0.  0.
         50    1    1    2    0    0 -0.11337421037E-01  0.13746606450E-01 -0.13509115269E-01  0.50000500000E+01  0.50000000000E+01 0.  0.
</event>
<event>
 4    1  0.4993983E-021  0.5000050E+01  0.7818608E-02  0.2136455E+00
        -11   -1    0    0    0    0  0.00000000000E+00  0.00000000000E+00  0.50000499739E+01  0.50000500000E+01  0.51100000000E-03 0. -1.
         11   -1    0    0    0    0 -0.00000000000E+00 -0.00000000000E+00 -0.50000499739E+01  0.50000500000E+01  0.51100000000E-03 0.  1.
         50    1    1    2    0    0 -0.83935991814E-02 -0.65577678623E-02  0.19660764823E-01  0.50000500000E+01  0.50000000000E+01 0. -1.
         50    1    1    2    0    0  0.83935991814E-02  0.65577678623E-02 -0.19660764823E-01  0.50000500000E+01  0.50000000000E+01 0. -1.
</event>
<event>
 4    1  0.4993983E-021  0.5000050E+01  0.7818608E-02  0.2136455E+00
        -11   -1    0    0    0    0  0.00000000000E+00  0.00000000000E+00  0.50000499739E+01  0.50000500000E+01  0.51100000000E-03 0. -1.
         11   -1    0    0    0    0 -0.00000000000E+00 -0.00000000000E+00 -0.50000499739E+01  0.50000500000E+01  0.51100000000E-03 0.  1.
         50    1    1    2    0    0  0.58932242006E-02  0.16319487831E-01  0.14104847587E-01  0.50000500000E+01  0.50000000000E+01 0. -1.
         50    1    1    2    0    0 -0.58932242006E-02 -0.16319487831E-01 -0.14104847587E-01  0.50000500000E+01  0.50000000000E+01 0.  1.
</event>
<event>
 4    1  0.4993983E-021  0.5000050E+01  0.7818608E-02  0.2136455E+00
        -11   -1    0    0    0    0  0.00000000000E+00  0.00000000000E+00  0.50000499739E+01  0.50000500000E+01  0.51100000000E-03 0. -1.
         11   -1    0    0    0    0 -0.00000000000E+00 -0.00000000000E+00 -0.50000499739E+01  0.50000500000E+01  0.51100000000E-03 0.  1.
         50    1    1    2    0    0  0.14371454333E-01 -0.65673687681E-02 -0.15821929965E-01  0.50000500000E+01  0.50000000000E+01 0.  0.
         50    1    1    2    0    0 -0.14371454333E-01  0.65673687681E-02  0.15821929965E-01  0.50000500000E+01  0.50000000000E+01 0.  0.
</event>
<event>
 4    1  0.4993983E-021  0.5000050E+01  0.7818608E-02  0.2136455E+00
        -11   -1    0    0    0    0  0.00000000000E+00  0.00000000000E+00  0.50000499739E+01  0.50000500000E+01  0.51100000000E-03 0.  1.
         11   -1    0    0    0    0 -0.00000000000E+00 -0.00000000000E+00 -0.50000499739E+01  0.50000500000E+01  0.51100000000E-03 0. -1.
         50    1    1    2    0    0 -0.39660338878E-02  0.15341433941E-01 -0.15776992103E-01  0.50000500000E+01  0.50000000000E+01 0. -1.
         50    1    1    2    0    0  0.39660338878E-02 -0.15341433941E-01  0.15776992103E-01  0.50000500000E+01  0.50000000000E+01 0. -1.
</event>
<event>
 4    1  0.4993983E-021  0.5000050E+01  0.7818608E-02  0.2136455E+00
        -11   -1    0    0    0    0  0.00000000000E+00  0.00000000000E+00  0.50000499739E+01  0.50000500000E+01  0.51100000000E-03 0. -1.
         11   -1    0    0    0    0 -0.00000000000E+00 -0.00000000000E+00 -0.50000499739E+01  0.50000500000E+01  0.51100000000E-03 0.  1.
         50    1    1    2    0    0  0.11539049262E-02  0.21008350068E-01 -0.75710125368E-02  0.50000500000E+01  0.50000000000E+01 0.  1.
         50    1    1    2    0    0 -0.11539049262E-02 -0.21008350068E-01  0.75710125368E-02  0.50000500000E+01  0.50000000000E+01 0.  0.
</event>
<event>
 4    1  0.4993983E-021  0.5000050E+01  0.7818608E-02  0.2136455E+00
        -11   -1    0    0    0    0  0.00000000000E+00  0.00000000000E+00  0.50000499739E+01  0.50000500000E+01  0.51100000000E-03 0.  1.
         11   -1    0    0    0    0 -0.00000000000E+00 -0.00000000000E+00 -0.50000499739E+01  0.50000500000E+01  0.51100000000E-03 0. -1.
         50    1    1    2    0    0 -0.20096959137E-01 -0.82135201636E-02  0.53528328897E-02  0.50000500000E+01  0.50000000000E+01 0.  1.
         50    1    1    2    0    0  0.20096959137E-01  0.82135201636E-02 -0.53528328897E-02  0.50000500000E+01  0.50000000000E+01 0. -1.
</event>
<event>
 4    1  0.4993983E-021  0.5000050E+01  0.7818608E-02  0.2136455E+00
        -11   -1    0    0    0    0  0.00000000000E+00  0.00000000000E+00  0.50000499739E+01  0.50000500000E+01  0.51100000000E-03 0. -1.
         11   -1    0    0    0    0 -0.00000000000E+00 -0.00000000000E+00 -0.50000499739E+01  0.50000500000E+01  0.51100000000E-03 0.  1.
         50    1    1    2    0    0 -0.34704345556E-03  0.17847489780E-01  0.13466594573E-01  0.50000500000E+01  0.50000000000E+01 0.  0.
         50    1    1    2    0    0  0.34704345556E-03 -0.17847489780E-01 -0.13466594573E-01  0.50000500000E+01  0.50000000000E+01 0.  0.
</event>
<event>
 4    1  0.4993983E-021  0.5000050E+01  0.7818608E-02  0.2136455E+00
        -11   -1    0    0    0    0  0.00000000000E+00  0.00000000000E+00  0.50000499739E+01  0.50000500000E+01  0.51100000000E-03 0. -1.
         11   -1    0    0    0    0 -0.00000000000E+00 -0.00000000000E+00 -0.50000499739E+01  0.50000500000E+01  0.51100000000E-03 0.  1.
         50    1    1    2    0    0 -0.21708485360E-01  0.47976503029E-02 -0.23930555673E-02  0.50000500000E+01  0.50000000000E+01 0.  0.
         50    1    1    2    0    0  0.21708485360E-01 -0.47976503029E-02  0.23930555673E-02  0.50000500000E+01  0.50000000000E+01 0.  1.
</event>
<event>
 4    1  0.4993983E-021  0.5000050E+01  0.7818608E-02  0.2136455E+00
        -11   -1    0    0    0    0  0.00000000000E+00  0.00000000000E+00  0.50000499739E+01  0.50000500000E+01  0.51100000000E-03 0.  1.
         11   -1    0    0    0    0 -0.00000000000E+00 -0.00000000000E+00 -0.50000499739E+01  0.50000500000E+01  0.51100000000E-03 0. -1.
         50    1    1    2    0    0 -0.11454767459E-01 -0.16793092363E-01  0.93157313912E-02  0.50000500000E+01  0.50000000000E+01 0.  1.
         50    1    1    2    0    0  0.11454767459E-01  0.16793092363E-01 -0.93157313912E-02  0.50000500000E+01  0.50000000000E+01 0. -1.
</event>
<event>
 4    1  0.4993983E-021  0.5000050E+01  0.7818608E-02  0.2136455E+00
        -11   -1    0    0    0    0  0.00000000000E+00  0.00000000000E+00  0.50000499739E+01  0.50000500000E+01  0.51100000000E-03 0. -1.
         11   -1    0    0    0    0 -0.00000000000E+00 -0.00000000000E+00 -0.50000499739E+01  0.50000500000E+01  0.51100000000E-03 0.  1.
         50    1    1    2    0    0  0.38314205722E-02 -0.17380283207E-01 -0.13536929934E-01  0.50000500000E+01  0.50000000000E+01 0.  0.
         50    1    1    2    0    0 -0.38314205722E-02  0.17380283207E-01  0.13536929934E-01  0.50000500000E+01  0.50000000000E+01 0.  0.
</event>
<event>
 4    1  0.4993983E-021  0.5000050E+01  0.7818608E-02  0.2136455E+00
        -11   -1    0    0    0    0  0.00000000000E+00  0.00000000000E+00  0.50000499739E+01  0.50000500000E+01  0.51100000000E-03 0.  1.
         11   -1    0    0    0    0 -0.00000000000E+00 -0.00000000000E+00 -0.50000499739E+01  0.50000500000E+01  0.51100000000E-03 0. -1.
         50    1    1    2    0    0 -0.22001412191E-01  0.28068213048E-02  0.28393865122E-02  0.50000500000E+01  0.50000000000E+01 0.  0.
         50    1    1    2    0    0  0.22001412191E-01 -0.28068213048E-02 -0.28393865122E-02  0.50000500000E+01  0.50000000000E+01 0.  0.
</event>
<event>
 4    1  0.4993983E-021  0.5000050E+01  0.7818608E-02  0.2136455E+00
        -11   -1    0    0    0    0  0.00000000000E+00  0.00000000000E+00  0.50000499739E+01  0.50000500000E+01  0.51100000000E-03 0. -1.
         11   -1    0    0    0    0 -0.00000000000E+00 -0.00000000000E+00 -0.50000499739E+01  0.50000500000E+01  0.51100000000E-03 0.  1.
         50    1    1    2    0    0  0.47422126950E-02  0.16533713305E-01 -0.14288115449E-01  0.50000500000E+01  0.50000000000E+01 0.  1.
         50    1    1    2    0    0 -0.47422126950E-02 -0.16533713305E-01  0.14288115449E-01  0.50000500000E+01  0.50000000000E+01 0. -1.
</event>
<event>
 4    1  0.4993983E-021  0.5000050E+01  0.7818608E-02  0.2136455E+00
        -11   -1    0    0    0    0  0.00000000000E+00  0.00000000000E+00  0.50000499739E+01  0.50000500000E+01  0.51100000000E-03 0.  1.
         11   -1    0    0    0    0 -0.00000000000E+00 -0.00000000000E+00 -0.50000499739E+01  0.50000500000E+01  0.51100000000E-03 0. -1.
         50    1    1    2    0    0 -0.52457932729E-02  0.13765266085E-01  0.16822651472E-01  0.50000500000E+01  0.50000000000E+01 0.  0.
         50    1    1    2    0    0  0.52457932729E-02 -0.13765266085E-01 -0.16822651472E-01  0.50000500000E+01  0.50000000000E+01 0.  0.
</event>
<event>
 4    1  0.4993983E-021  0.5000050E+01  0.7818608E-02  0.2136455E+00
        -11   -1    0    0    0    0  0.00000000000E+00  0.00000000000E+00  0.50000499739E+01  0.50000500000E+01  0.51100000000E-03 0. -1.
         11   -1    0    0    0    0 -0.00000000000E+00 -0.00000000000E+00 -0.50000499739E+01  0.50000500000E+01  0.51100000000E-03 0.  1.
         50    1    1    2    0    0 -0.15380724306E-01  0.20968253019E-02 -0.16094693022E-01  0.50000500000E+01  0.50000000000E+01 0.  0.
         50    1    1    2    0    0  0.15380724306E-01 -0.20968253019E-02  0.16094693022E-01  0.50000500000E+01  0.50000000000E+01 0.  0.
</event>
<event>
 4    1  0.4993983E-021  0.5000050E+01  0.7818608E-02  0.2136455E+00
        -11   -1    0    0    0    0  0.00000000000E+00  0.00000000000E+00  0.50000499739E+01  0.50000500000E+01  0.51100000000E-03 0. -1.
         11   -1    0    0    0    0 -0.00000000000E+00 -0.00000000000E+00 -0.50000499739E+01  0.50000500000E+01  0.51100000000E-03 0.  1.
         50    1    1    2    0    0 -0.16932030207E-01 -0.16171118431E-02  0.14515295462E-01  0.50000500000E+01  0.50000000000E+01 0. -1.
         50    1    1    2    0    0  0.16932030207E-01  0.16171118431E-02 -0.14515295462E-01  0.50000500000E+01  0.50000000000E+01 0.  1.
</event>
<event>
 4    1  0.4993983E-021  0.5000050E+01  0.7818608E-02  0.2136455E+00
        -11   -1    0    0    0    0  0.00000000000E+00  0.00000000000E+00  0.50000499739E+01  0.50000500000E+01  0.51100000000E-03 0.  1.
         11   -1    0    0    0    0 -0.00000000000E+00 -0.00000000000E+00 -0.50000499739E+01  0.50000500000E+01  0.51100000000E-03 0. -1.
         50    1    1    2    0    0 -0.10473437498E-01 -0.19338783759E-02 -0.19661376386E-01  0.50000500000E+01  0.50000000000E+01 0. -1.
         50    1    1    2    0    0  0.10473437498E-01  0.19338783759E-02  0.19661376386E-01  0.50000500000E+01  0.50000000000E+01 0.  1.
</event>
<event>
 4    1  0.4993983E-021  0.5000050E+01  0.7818608E-02  0.2136455E+00
        -11   -1    0    0    0    0  0.00000000000E+00  0.00000000000E+00  0.50000499739E+01  0.50000500000E+01  0.51100000000E-03 0.  1.
         11   -1    0    0    0    0 -0.00000000000E+00 -0.00000000000E+00 -0.50000499739E+01  0.50000500000E+01  0.51100000000E-03 0. -1.
         50    1    1    2    0    0 -0.17531797714E-01  0.13877554024E-01  0.22817365353E-03  0.50000500000E+01  0.50000000000E+01 0. -1.
         50    1    1    2    0    0  0.17531797714E-01 -0.13877554024E-01 -0.22817365353E-03  0.50000500000E+01  0.50000000000E+01 0.  1.
</event>
<event>
 4    1  0.4993983E-021  0.5000050E+01  0.7818608E-02  0.2136455E+00
        -11   -1    0    0    0    0  0.00000000000E+00  0.00000000000E+00  0.50000499739E+01  0.50000500000E+01  0.51100000000E-03 0. -1.
         11   -1    0    0    0    0 -0.00000000000E+00 -0.00000000000E+00 -0.50000499739E+01  0.50000500000E+01  0.51100000000E-03 0.  1.
         50    1    1    2    0    0 -0.20027360163E-01 -0.84471447001E-02 -0.52491038565E-02  0.50000500000E+01  0.50000000000E+01 0.  1.
         50    1    1    2    0    0  0.20027360163E-01  0.84471447001E-02  0.52491038565E-02  0.50000500000E+01  0.50000000000E+01 0. -1.
</event>
<event>
 4    1  0.4993983E-021  0.5000050E+01  0.7818608E-02  0.2136455E+00
        -11   -1    0    0    0    0  0.00000000000E+00  0.00000000000E+00  0.50000499739E+01  0.50000500000E+01  0.51100000000E-03 0. -1.
         11   -1    0    0    0    0 -0.00000000000E+00 -0.00000000000E+00 -0.50000499739E+01  0.50000500000E+01  0.51100000000E-03 0.  1.
         50    1    1    2    0    0  0.14422122251E-01 -0.13947775667E-02  0.17031132825E-01  0.50000500000E+01  0.50000000000E+01 0. -1.
         50    1    1    2    0    0 -0.14422122251E-01  0.13947775667E-02 -0.17031132825E-01  0.50000500000E+01  0.50000000000E+01 0.  1.
</event>
<event>
 4    1  0.4993983E-021  0.5000050E+01  0.7818608E-02  0.2136455E+00
        -11   -1    0    0    0    0  0.00000000000E+00  0.00000000000E+00  0.50000499739E+01  0.50000500000E+01  0.51100000000E-03 0.  1.
         11   -1    0    0    0    0 -0.00000000000E+00 -0.00000000000E+00 -0.50000499739E+01  0.50000500000E+01  0.51100000000E-03 0. -1.
         50    1    1    2    0    0 -0.63540522647E-02  0.20260816485E-01 -0.70091251368E-02  0.50000500000E+01  0.50000000000E+01 0. -1.
         50    1    1    2    0    0  0.63540522647E-02 -0.20260816485E-01  0.70091251368E-02  0.50000500000E+01  0.50000000000E+01 0.  1.
</event>
<event>
 4    1  0.4993983E-021  0.5000050E+01  0.7818608E-02  0.2136455E+00
        -11   -1    0    0    0    0  0.00000000000E+00  0.00000000000E+00  0.50000499739E+01  0.50000500000E+01  0.51100000000E-03 0.  1.
         11   -1    0    0    0    0 -0.00000000000E+00 -0.00000000000E+00 -0.50000499739E+01  0.50000500000E+01  0.51100000000E-03 0. -1.
         50    1    1    2    0    0 -0.15333524423E-01  0.38523269594E-03  0.16270744437E-01  0.50000500000E+01  0.50000000000E+01 0.  1.
         50    1    1    2    0    0  0.15333524423E-01 -0.38523269594E-03 -0.16270744437E-01  0.50000500000E+01  0.50000000000E+01 0. -1.
</event>
<event>
 4    1  0.4993983E-021  0.5000050E+01  0.7818608E-02  0.2136455E+00
        -11   -1    0    0    0    0  0.00000000000E+00  0.00000000000E+00  0.50000499739E+01  0.50000500000E+01  0.51100000000E-03 0. -1.
         11   -1    0    0    0    0 -0.00000000000E+00 -0.00000000000E+00 -0.50000499739E+01  0.50000500000E+01  0.51100000000E-03 0.  1.
         50    1    1    2    0    0  0.10288026169E-01  0.17423823304E-01  0.95167956267E-02  0.50000500000E+01  0.50000000000E+01 0. -1.
         50    1    1    2    0    0 -0.10288026169E-01 -0.17423823304E-01 -0.95167956267E-02  0.50000500000E+01  0.50000000000E+01 0.  1.
</event>
<event>
 4    1  0.4993983E-021  0.5000050E+01  0.7818608E-02  0.2136455E+00
        -11   -1    0    0    0    0  0.00000000000E+00  0.00000000000E+00  0.50000499739E+01  0.50000500000E+01  0.51100000000E-03 0.  1.
         11   -1    0    0    0    0 -0.00000000000E+00 -0.00000000000E+00 -0.50000499739E+01  0.50000500000E+01  0.51100000000E-03 0. -1.
         50    1    1    2    0    0  0.62204313189E-02  0.18685673728E-01  0.10590294215E-01  0.50000500000E+01  0.50000000000E+01 0. -1.
         50    1    1    2    0    0 -0.62204313189E-02 -0.18685673728E-01 -0.10590294215E-01  0.50000500000E+01  0.50000000000E+01 0.  1.
</event>
<event>
 4    1  0.4993983E-021  0.5000050E+01  0.7818608E-02  0.2136455E+00
        -11   -1    0    0    0    0  0.00000000000E+00  0.00000000000E+00  0.50000499739E+01  0.50000500000E+01  0.51100000000E-03 0.  1.
         11   -1    0    0    0    0 -0.00000000000E+00 -0.00000000000E+00 -0.50000499739E+01  0.50000500000E+01  0.51100000000E-03 0. -1.
         50    1    1    2    0    0 -0.10661594472E-01  0.13221140119E-01  0.14544220751E-01  0.50000500000E+01  0.50000000000E+01 0.  1.
         50    1    1    2    0    0  0.10661594472E-01 -0.13221140119E-01 -0.14544220751E-01  0.50000500000E+01  0.50000000000E+01 0. -1.
</event>
<event>
 4    1  0.4993983E-021  0.5000050E+01  0.7818608E-02  0.2136455E+00
        -11   -1    0    0    0    0  0.00000000000E+00  0.00000000000E+00  0.50000499739E+01  0.50000500000E+01  0.51100000000E-03 0. -1.
         11   -1    0    0    0    0 -0.00000000000E+00 -0.00000000000E+00 -0.50000499739E+01  0.50000500000E+01  0.51100000000E-03 0.  1.
         50    1    1    2    0    0 -0.25771286529E-02  0.21625578287E-01  0.50690503704E-02  0.50000500000E+01  0.50000000000E+01 0. -1.
         50    1    1    2    0    0  0.25771286529E-02 -0.21625578287E-01 -0.50690503704E-02  0.50000500000E+01  0.50000000000E+01 0.  1.
</event>
<event>
 4    1  0.4993983E-021  0.5000050E+01  0.7818608E-02  0.2136455E+00
        -11   -1    0    0    0    0  0.00000000000E+00  0.00000000000E+00  0.50000499739E+01  0.50000500000E+01  0.51100000000E-03 0. -1.
         11   -1    0    0    0    0 -0.00000000000E+00 -0.00000000000E+00 -0.50000499739E+01  0.50000500000E+01  0.51100000000E-03 0.  1.
         50    1    1    2    0    0 -0.12231379649E-02 -0.20483649776E-01 -0.88840601850E-02  0.50000500000E+01  0.50000000000E+01 0. -1.
         50    1    1    2    0    0  0.12231379649E-02  0.20483649776E-01  0.88840601850E-02  0.50000500000E+01  0.50000000000E+01 0. -1.
</event>
<event>
 4    1  0.4993983E-021  0.5000050E+01  0.7818608E-02  0.2136455E+00
        -11   -1    0    0    0    0  0.00000000000E+00  0.00000000000E+00  0.50000499739E+01  0.50000500000E+01  0.51100000000E-03 0.  1.
         11   -1    0    0    0    0 -0.00000000000E+00 -0.00000000000E+00 -0.50000499739E+01  0.50000500000E+01  0.51100000000E-03 0. -1.
         50    1    1    2    0    0  0.35246227633E-02  0.21635683810E-01  0.44132437564E-02  0.50000500000E+01  0.50000000000E+01 0.  1.
         50    1    1    2    0    0 -0.35246227633E-02 -0.21635683810E-01 -0.44132437564E-02  0.50000500000E+01  0.50000000000E+01 0. -1.
</event>
<event>
 4    1  0.4993983E-021  0.5000050E+01  0.7818608E-02  0.2136455E+00
        -11   -1    0    0    0    0  0.00000000000E+00  0.00000000000E+00  0.50000499739E+01  0.50000500000E+01  0.51100000000E-03 0.  1.
         11   -1    0    0    0    0 -0.00000000000E+00 -0.00000000000E+00 -0.50000499739E+01  0.50000500000E+01  0.51100000000E-03 0. -1.
         50    1    1    2    0    0  0.16301079730E-01 -0.59254712385E-02  0.14112621665E-01  0.50000500000E+01  0.50000000000E+01 0.  0.
         50    1    1    2    0    0 -0.16301079730E-01  0.59254712385E-02 -0.14112621665E-01  0.50000500000E+01  0.50000000000E+01 0.  0.
</event>
<event>
 4    1  0.4993983E-021  0.5000050E+01  0.7818608E-02  0.2136455E+00
        -11   -1    0    0    0    0  0.00000000000E+00  0.00000000000E+00  0.50000499739E+01  0.50000500000E+01  0.51100000000E-03 0.  1.
         11   -1    0    0    0    0 -0.00000000000E+00 -0.00000000000E+00 -0.50000499739E+01  0.50000500000E+01  0.51100000000E-03 0. -1.
         50    1    1    2    0    0  0.13843790101E-01  0.17382788911E-01  0.24880967198E-02  0.50000500000E+01  0.50000000000E+01 0.  1.
         50    1    1    2    0    0 -0.13843790101E-01 -0.17382788911E-01 -0.24880967198E-02  0.50000500000E+01  0.50000000000E+01 0.  0.
</event>
<event>
 4    1  0.4993983E-021  0.5000050E+01  0.7818608E-02  0.2136455E+00
        -11   -1    0    0    0    0  0.00000000000E+00  0.00000000000E+00  0.50000499739E+01  0.50000500000E+01  0.51100000000E-03 0.  1.
         11   -1    0    0    0    0 -0.00000000000E+00 -0.00000000000E+00 -0.50000499739E+01  0.50000500000E+01  0.51100000000E-03 0. -1.
         50    1    1    2    0    0 -0.21756330647E-01 -0.51131957954E-02 -0.72097539442E-03  0.50000500000E+01  0.50000000000E+01 0. -1.
         50    1    1    2    0    0  0.21756330647E-01  0.51131957954E-02  0.72097539442E-03  0.50000500000E+01  0.50000000000E+01 0.  0.
</event>
<event>
 4    1  0.4993983E-021  0.5000050E+01  0.7818608E-02  0.2136455E+00
        -11   -1    0    0    0    0  0.00000000000E+00  0.00000000000E+00  0.50000499739E+01  0.50000500000E+01  0.51100000000E-03 0. -1.
         11   -1    0    0    0    0 -0.00000000000E+00 -0.00000000000E+00 -0.50000499739E+01  0.50000500000E+01  0.51100000000E-03 0.  1.
         50    1    1    2    0    0 -0.10724345937E-01 -0.19547012038E-01 -0.17044719457E-02  0.50000500000E+01  0.50000000000E+01 0.  1.
         50    1    1    2    0    0  0.10724345937E-01  0.19547012038E-01  0.17044719457E-02  0.50000500000E+01  0.50000000000E+01 0.  0.
</event>
<event>
 4    1  0.4993983E-021  0.5000050E+01  0.7818608E-02  0.2136455E+00
        -11   -1    0    0    0    0  0.00000000000E+00  0.00000000000E+00  0.50000499739E+01  0.50000500000E+01  0.51100000000E-03 0.  1.
         11   -1    0    0    0    0 -0.00000000000E+00 -0.00000000000E+00 -0.50000499739E+01  0.50000500000E+01  0.51100000000E-03 0. -1.
         50    1    1    2    0    0  0.12452491025E-01 -0.67266891097E-02 -0.17311545884E-01  0.50000500000E+01  0.50000000000E+01 0.  0.
         50    1    1    2    0    0 -0.12452491025E-01  0.67266891097E-02  0.17311545884E-01  0.50000500000E+01  0.50000000000E+01 0.  1.
</event>
<event>
 4    1  0.4993983E-021  0.5000050E+01  0.7818608E-02  0.2136455E+00
        -11   -1    0    0    0    0  0.00000000000E+00  0.00000000000E+00  0.50000499739E+01  0.50000500000E+01  0.51100000000E-03 0. -1.
         11   -1    0    0    0    0 -0.00000000000E+00 -0.00000000000E+00 -0.50000499739E+01  0.50000500000E+01  0.51100000000E-03 0.  1.
         50    1    1    2    0    0  0.19961143439E-02  0.14890523985E-01 -0.16561712562E-01  0.50000500000E+01  0.50000000000E+01 0.  1.
         50    1    1    2    0    0 -0.19961143439E-02 -0.14890523985E-01  0.16561712562E-01  0.50000500000E+01  0.50000000000E+01 0. -1.
</event>
<event>
 4    1  0.4993983E-021  0.5000050E+01  0.7818608E-02  0.2136455E+00
        -11   -1    0    0    0    0  0.00000000000E+00  0.00000000000E+00  0.50000499739E+01  0.50000500000E+01  0.51100000000E-03 0. -1.
         11   -1    0    0    0    0 -0.00000000000E+00 -0.00000000000E+00 -0.50000499739E+01  0.50000500000E+01  0.51100000000E-03 0.  1.
         50    1    1    2    0    0  0.36153868798E-02 -0.19035580882E-01 -0.11161457710E-01  0.50000500000E+01  0.50000000000E+01 0. -1.
         50    1    1    2    0    0 -0.36153868798E-02  0.19035580882E-01  0.11161457710E-01  0.50000500000E+01  0.50000000000E+01 0.  0.
</event>
<event>
 4    1  0.4993983E-021  0.5000050E+01  0.7818608E-02  0.2136455E+00
        -11   -1    0    0    0    0  0.00000000000E+00  0.00000000000E+00  0.50000499739E+01  0.50000500000E+01  0.51100000000E-03 0.  1.
         11   -1    0    0    0    0 -0.00000000000E+00 -0.00000000000E+00 -0.50000499739E+01  0.50000500000E+01  0.51100000000E-03 0. -1.
         50    1    1    2    0    0  0.12945036943E-01  0.10427544162E-02 -0.18202779507E-01  0.50000500000E+01  0.50000000000E+01 0.  1.
         50    1    1    2    0    0 -0.12945036943E-01 -0.10427544162E-02  0.18202779507E-01  0.50000500000E+01  0.50000000000E+01 0.  0.
</event>
<event>
 4    1  0.4993983E-021  0.5000050E+01  0.7818608E-02  0.2136455E+00
        -11   -1    0    0    0    0  0.00000000000E+00  0.00000000000E+00  0.50000499739E+01  0.50000500000E+01  0.51100000000E-03 0. -1.
         11   -1    0    0    0    0 -0.00000000000E+00 -0.00000000000E+00 -0.50000499739E+01  0.50000500000E+01  0.51100000000E-03 0.  1.
         50    1    1    2    0    0  0.15236424484E-01  0.88835460797E-02 -0.13745416617E-01  0.50000500000E+01  0.50000000000E+01 0.  0.
         50    1    1    2    0    0 -0.15236424484E-01 -0.88835460797E-02  0.13745416617E-01  0.50000500000E+01  0.50000000000E+01 0.  1.
</event>
<event>
 4    1  0.4993983E-021  0.5000050E+01  0.7818608E-02  0.2136455E+00
        -11   -1    0    0    0    0  0.00000000000E+00  0.00000000000E+00  0.50000499739E+01  0.50000500000E+01  0.51100000000E-03 0. -1.
         11   -1    0    0    0    0 -0.00000000000E+00 -0.00000000000E+00 -0.50000499739E+01  0.50000500000E+01  0.51100000000E-03 0.  1.
         50    1    1    2    0    0  0.22044337162E-01 -0.37299872492E-02 -0.36999217785E-03  0.50000500000E+01  0.50000000000E+01 0.  1.
         50    1    1    2    0    0 -0.22044337162E-01  0.37299872492E-02  0.36999217785E-03  0.50000500000E+01  0.50000000000E+01 0. -1.
</event>
<event>
 4    1  0.4993983E-021  0.5000050E+01  0.7818608E-02  0.2136455E+00
        -11   -1    0    0    0    0  0.00000000000E+00  0.00000000000E+00  0.50000499739E+01  0.50000500000E+01  0.51100000000E-03 0. -1.
         11   -1    0    0    0    0 -0.00000000000E+00 -0.00000000000E+00 -0.50000499739E+01  0.50000500000E+01  0.51100000000E-03 0.  1.
         50    1    1    2    0    0 -0.11849310263E-01 -0.18441983114E-01  0.44147032890E-02  0.50000500000E+01  0.50000000000E+01 0.  0.
         50    1    1    2    0    0  0.11849310263E-01  0.18441983114E-01 -0.44147032890E-02  0.50000500000E+01  0.50000000000E+01 0.  0.
</event>
<event>
 4    1  0.4993983E-021  0.5000050E+01  0.7818608E-02  0.2136455E+00
        -11   -1    0    0    0    0  0.00000000000E+00  0.00000000000E+00  0.50000499739E+01  0.50000500000E+01  0.51100000000E-03 0. -1.
         11   -1    0    0    0    0 -0.00000000000E+00 -0.00000000000E+00 -0.50000499739E+01  0.50000500000E+01  0.51100000000E-03 0.  1.
         50    1    1    2    0    0 -0.20266168087E-02  0.21609543343E-01 -0.53780071418E-02  0.50000500000E+01  0.50000000000E+01 0.  0.
         50    1    1    2    0    0  0.20266168087E-02 -0.21609543343E-01  0.53780071418E-02  0.50000500000E+01  0.50000000000E+01 0.  1.
</event>
<event>
 4    1  0.4993983E-021  0.5000050E+01  0.7818608E-02  0.2136455E+00
        -11   -1    0    0    0    0  0.00000000000E+00  0.00000000000E+00  0.50000499739E+01  0.50000500000E+01  0.51100000000E-03 0. -1.
         11   -1    0    0    0    0 -0.00000000000E+00 -0.00000000000E+00 -0.50000499739E+01  0.50000500000E+01  0.51100000000E-03 0.  1.
         50    1    1    2    0    0  0.40858219751E-02 -0.14102705861E-02  0.21938999422E-01  0.50000500000E+01  0.50000000000E+01 0. -1.
         50    1    1    2    0    0 -0.40858219751E-02  0.14102705861E-02 -0.21938999422E-01  0.50000500000E+01  0.50000000000E+01 0.  0.
</event>
<event>
 4    1  0.4993983E-021  0.5000050E+01  0.7818608E-02  0.2136455E+00
        -11   -1    0    0    0    0  0.00000000000E+00  0.00000000000E+00  0.50000499739E+01  0.50000500000E+01  0.51100000000E-03 0. -1.
         11   -1    0    0    0    0 -0.00000000000E+00 -0.00000000000E+00 -0.50000499739E+01  0.50000500000E+01  0.51100000000E-03 0.  1.
         50    1    1    2    0    0  0.14875915991E-01 -0.16694063476E-01  0.13367155430E-03  0.50000500000E+01  0.50000000000E+01 0. -1.
         50    1    1    2    0    0 -0.14875915991E-01  0.16694063476E-01 -0.13367155430E-03  0.50000500000E+01  0.50000000000E+01 0.  1.
</event>
<event>
 4    1  0.4993983E-021  0.5000050E+01  0.7818608E-02  0.2136455E+00
        -11   -1    0    0    0    0  0.00000000000E+00  0.00000000000E+00  0.50000499739E+01  0.50000500000E+01  0.51100000000E-03 0.  1.
         11   -1    0    0    0    0 -0.00000000000E+00 -0.00000000000E+00 -0.50000499739E+01  0.50000500000E+01  0.51100000000E-03 0. -1.
         50    1    1    2    0    0  0.10246695097E-01 -0.82248677125E-02  0.18093073003E-01  0.50000500000E+01  0.50000000000E+01 0.  1.
         50    1    1    2    0    0 -0.10246695097E-01  0.82248677125E-02 -0.18093073003E-01  0.50000500000E+01  0.50000000000E+01 0.  0.
</event>
<event>
 4    1  0.4993983E-021  0.5000050E+01  0.7818608E-02  0.2136455E+00
        -11   -1    0    0    0    0  0.00000000000E+00  0.00000000000E+00  0.50000499739E+01  0.50000500000E+01  0.51100000000E-03 0. -1.
         11   -1    0    0    0    0 -0.00000000000E+00 -0.00000000000E+00 -0.50000499739E+01  0.50000500000E+01  0.51100000000E-03 0.  1.
         50    1    1    2    0    0  0.18903985966E-01  0.80789698310E-02 -0.87961389852E-02  0.50000500000E+01  0.50000000000E+01 0.  1.
         50    1    1    2    0    0 -0.18903985966E-01 -0.80789698310E-02  0.87961389852E-02  0.50000500000E+01  0.50000000000E+01 0. -1.
</event>
<event>
 4    1  0.4993983E-021  0.5000050E+01  0.7818608E-02  0.2136455E+00
        -11   -1    0    0    0    0  0.00000000000E+00  0.00000000000E+00  0.50000499739E+01  0.50000500000E+01  0.51100000000E-03 0.  1.
         11   -1    0    0    0    0 -0.00000000000E+00 -0.00000000000E+00 -0.50000499739E+01  0.50000500000E+01  0.51100000000E-03 0. -1.
         50    1    1    2    0    0 -0.15611576653E-01 -0.11127881123E-01 -0.11508754760E-01  0.50000500000E+01  0.50000000000E+01 0.  0.
         50    1    1    2    0    0  0.15611576653E-01  0.11127881123E-01  0.11508754760E-01  0.50000500000E+01  0.50000000000E+01 0.  0.
</event>
<event>
 4    1  0.4993983E-021  0.5000050E+01  0.7818608E-02  0.2136455E+00
        -11   -1    0    0    0    0  0.00000000000E+00  0.00000000000E+00  0.50000499739E+01  0.50000500000E+01  0.51100000000E-03 0.  1.
         11   -1    0    0    0    0 -0.00000000000E+00 -0.00000000000E+00 -0.50000499739E+01  0.50000500000E+01  0.51100000000E-03 0. -1.
         50    1    1    2    0    0 -0.17699811488E-01 -0.27669118132E-02 -0.13381456285E-01  0.50000500000E+01  0.50000000000E+01 0.  0.
         50    1    1    2    0    0  0.17699811488E-01  0.27669118132E-02  0.13381456285E-01  0.50000500000E+01  0.50000000000E+01 0.  0.
</event>
<event>
 4    1  0.4993983E-021  0.5000050E+01  0.7818608E-02  0.2136455E+00
        -11   -1    0    0    0    0  0.00000000000E+00  0.00000000000E+00  0.50000499739E+01  0.50000500000E+01  0.51100000000E-03 0. -1.
         11   -1    0    0    0    0 -0.00000000000E+00 -0.00000000000E+00 -0.50000499739E+01  0.50000500000E+01  0.51100000000E-03 0.  1.
         50    1    1    2    0    0  0.10921865428E-01  0.17185170883E-01 -0.92404143464E-02  0.50000500000E+01  0.50000000000E+01 0.  0.
         50    1    1    2    0    0 -0.10921865428E-01 -0.17185170883E-01  0.92404143464E-02  0.50000500000E+01  0.50000000000E+01 0.  1.
</event>
<event>
 4    1  0.4993983E-021  0.5000050E+01  0.7818608E-02  0.2136455E+00
        -11   -1    0    0    0    0  0.00000000000E+00  0.00000000000E+00  0.50000499739E+01  0.50000500000E+01  0.51100000000E-03 0. -1.
         11   -1    0    0    0    0 -0.00000000000E+00 -0.00000000000E+00 -0.50000499739E+01  0.50000500000E+01  0.51100000000E-03 0.  1.
         50    1    1    2    0    0 -0.13913499663E-02 -0.18680323857E-01 -0.12211148425E-01  0.50000500000E+01  0.50000000000E+01 0.  0.
         50    1    1    2    0    0  0.13913499663E-02  0.18680323857E-01  0.12211148425E-01  0.50000500000E+01  0.50000000000E+01 0.  0.
</event>
<event>
 4    1  0.4993983E-021  0.5000050E+01  0.7818608E-02  0.2136455E+00
        -11   -1    0    0    0    0  0.00000000000E+00  0.00000000000E+00  0.50000499739E+01  0.50000500000E+01  0.51100000000E-03 0. -1.
         11   -1    0    0    0    0 -0.00000000000E+00 -0.00000000000E+00 -0.50000499739E+01  0.50000500000E+01  0.51100000000E-03 0.  1.
         50    1    1    2    0    0 -0.45269167895E-02 -0.40035890493E-02 -0.21528604207E-01  0.50000500000E+01  0.50000000000E+01 0.  0.
         50    1    1    2    0    0  0.45269167895E-02  0.40035890493E-02  0.21528604207E-01  0.50000500000E+01  0.50000000000E+01 0. -1.
</event>
<event>
 4    1  0.4993983E-021  0.5000050E+01  0.7818608E-02  0.2136455E+00
        -11   -1    0    0    0    0  0.00000000000E+00  0.00000000000E+00  0.50000499739E+01  0.50000500000E+01  0.51100000000E-03 0. -1.
         11   -1    0    0    0    0 -0.00000000000E+00 -0.00000000000E+00 -0.50000499739E+01  0.50000500000E+01  0.51100000000E-03 0.  1.
         50    1    1    2    0    0  0.12607759686E-01 -0.17361982764E-01 -0.62935244650E-02  0.50000500000E+01  0.50000000000E+01 0.  1.
         50    1    1    2    0    0 -0.12607759686E-01  0.17361982764E-01  0.62935244650E-02  0.50000500000E+01  0.50000000000E+01 0. -1.
</event>
<event>
 4    1  0.4993983E-021  0.5000050E+01  0.7818608E-02  0.2136455E+00
        -11   -1    0    0    0    0  0.00000000000E+00  0.00000000000E+00  0.50000499739E+01  0.50000500000E+01  0.51100000000E-03 0. -1.
         11   -1    0    0    0    0 -0.00000000000E+00 -0.00000000000E+00 -0.50000499739E+01  0.50000500000E+01  0.51100000000E-03 0.  1.
         50    1    1    2    0    0 -0.17504330004E-01 -0.13911905346E-01  0.24458282736E-03  0.50000500000E+01  0.50000000000E+01 0. -1.
         50    1    1    2    0    0  0.17504330004E-01  0.13911905346E-01 -0.24458282736E-03  0.50000500000E+01  0.50000000000E+01 0.  1.
</event>
<event>
 4    1  0.4993983E-021  0.5000050E+01  0.7818608E-02  0.2136455E+00
        -11   -1    0    0    0    0  0.00000000000E+00  0.00000000000E+00  0.50000499739E+01  0.50000500000E+01  0.51100000000E-03 0.  1.
         11   -1    0    0    0    0 -0.00000000000E+00 -0.00000000000E+00 -0.50000499739E+01  0.50000500000E+01  0.51100000000E-03 0. -1.
         50    1    1    2    0    0 -0.84208343178E-02 -0.11316658393E-01 -0.17350080467E-01  0.50000500000E+01  0.50000000000E+01 0.  1.
         50    1    1    2    0    0  0.84208343178E-02  0.11316658393E-01  0.17350080467E-01  0.50000500000E+01  0.50000000000E+01 0.  0.
</event>
<event>
 4    1  0.4993983E-021  0.5000050E+01  0.7818608E-02  0.2136455E+00
        -11   -1    0    0    0    0  0.00000000000E+00  0.00000000000E+00  0.50000499739E+01  0.50000500000E+01  0.51100000000E-03 0.  1.
         11   -1    0    0    0    0 -0.00000000000E+00 -0.00000000000E+00 -0.50000499739E+01  0.50000500000E+01  0.51100000000E-03 0. -1.
         50    1    1    2    0    0 -0.14833558210E-01  0.16424548981E-01  0.31940948003E-02  0.50000500000E+01  0.50000000000E+01 0. -1.
         50    1    1    2    0    0  0.14833558210E-01 -0.16424548981E-01 -0.31940948003E-02  0.50000500000E+01  0.50000000000E+01 0.  1.
</event>
<event>
 4    1  0.4993983E-021  0.5000050E+01  0.7818608E-02  0.2136455E+00
        -11   -1    0    0    0    0  0.00000000000E+00  0.00000000000E+00  0.50000499739E+01  0.50000500000E+01  0.51100000000E-03 0. -1.
         11   -1    0    0    0    0 -0.00000000000E+00 -0.00000000000E+00 -0.50000499739E+01  0.50000500000E+01  0.51100000000E-03 0.  1.
         50    1    1    2    0    0  0.13800224007E-01  0.71882124074E-02  0.16058826848E-01  0.50000500000E+01  0.50000000000E+01 0. -1.
         50    1    1    2    0    0 -0.13800224007E-01 -0.71882124074E-02 -0.16058826848E-01  0.50000500000E+01  0.50000000000E+01 0. -1.
</event>
<event>
 4    1  0.4993983E-021  0.5000050E+01  0.7818608E-02  0.2136455E+00
        -11   -1    0    0    0    0  0.00000000000E+00  0.00000000000E+00  0.50000499739E+01  0.50000500000E+01  0.51100000000E-03 0.  1.
         11   -1    0    0    0    0 -0.00000000000E+00 -0.00000000000E+00 -0.50000499739E+01  0.50000500000E+01  0.51100000000E-03 0. -1.
         50    1    1    2    0    0  0.96469546814E-02 -0.64064598592E-02 -0.19128409172E-01  0.50000500000E+01  0.50000000000E+01 0.  0.
         50    1    1    2    0    0 -0.96469546814E-02  0.64064598592E-02  0.19128409172E-01  0.50000500000E+01  0.50000000000E+01 0.  1.
</event>
<event>
 4    1  0.4993983E-021  0.5000050E+01  0.7818608E-02  0.2136455E+00
        -11   -1    0    0    0    0  0.00000000000E+00  0.00000000000E+00  0.50000499739E+01  0.50000500000E+01  0.51100000000E-03 0.  1.
         11   -1    0    0    0    0 -0.00000000000E+00 -0.00000000000E+00 -0.50000499739E+01  0.50000500000E+01  0.51100000000E-03 0. -1.
         50    1    1    2    0    0  0.20572441104E-01 -0.86076505033E-02 -0.16387555732E-02  0.50000500000E+01  0.50000000000E+01 0.  1.
         50    1    1    2    0    0 -0.20572441104E-01  0.86076505033E-02  0.16387555732E-02  0.50000500000E+01  0.50000000000E+01 0.  0.
</event>
<event>
 4    1  0.4993983E-021  0.5000050E+01  0.7818608E-02  0.2136455E+00
        -11   -1    0    0    0    0  0.00000000000E+00  0.00000000000E+00  0.50000499739E+01  0.50000500000E+01  0.51100000000E-03 0.  1.
         11   -1    0    0    0    0 -0.00000000000E+00 -0.00000000000E+00 -0.50000499739E+01  0.50000500000E+01  0.51100000000E-03 0. -1.
         50    1    1    2    0    0 -0.70111475956E-02  0.20860373516E-01  0.39612026135E-02  0.50000500000E+01  0.50000000000E+01 0. -1.
         50    1    1    2    0    0  0.70111475956E-02 -0.20860373516E-01 -0.39612026135E-02  0.50000500000E+01  0.50000000000E+01 0.  1.
</event>
<event>
 4    1  0.4993983E-021  0.5000050E+01  0.7818608E-02  0.2136455E+00
        -11   -1    0    0    0    0  0.00000000000E+00  0.00000000000E+00  0.50000499739E+01  0.50000500000E+01  0.51100000000E-03 0. -1.
         11   -1    0    0    0    0 -0.00000000000E+00 -0.00000000000E+00 -0.50000499739E+01  0.50000500000E+01  0.51100000000E-03 0.  1.
         50    1    1    2    0    0  0.12839905915E-01  0.78912755984E-02 -0.16518688977E-01  0.50000500000E+01  0.50000000000E+01 0.  1.
         50    1    1    2    0    0 -0.12839905915E-01 -0.78912755984E-02  0.16518688977E-01  0.50000500000E+01  0.50000000000E+01 0. -1.
</event>
<event>
 4    1  0.4993983E-021  0.5000050E+01  0.7818608E-02  0.2136455E+00
        -11   -1    0    0    0    0  0.00000000000E+00  0.00000000000E+00  0.50000499739E+01  0.50000500000E+01  0.51100000000E-03 0.  1.
         11   -1    0    0    0    0 -0.00000000000E+00 -0.00000000000E+00 -0.50000499739E+01  0.50000500000E+01  0.51100000000E-03 0. -1.
         50    1    1    2    0    0 -0.19775489735E-01 -0.10188395339E-01  0.22647530030E-02  0.50000500000E+01  0.50000000000E+01 0.  0.
         50    1    1    2    0    0  0.19775489735E-01  0.10188395339E-01 -0.22647530030E-02  0.50000500000E+01  0.50000000000E+01 0. -1.
</event>
<event>
 4    1  0.4993983E-021  0.5000050E+01  0.7818608E-02  0.2136455E+00
        -11   -1    0    0    0    0  0.00000000000E+00  0.00000000000E+00  0.50000499739E+01  0.50000500000E+01  0.51100000000E-03 0. -1.
         11   -1    0    0    0    0 -0.00000000000E+00 -0.00000000000E+00 -0.50000499739E+01  0.50000500000E+01  0.51100000000E-03 0.  1.
         50    1    1    2    0    0 -0.18369295739E-01  0.10335909860E-01 -0.74659521428E-02  0.50000500000E+01  0.50000000000E+01 0.  1.
         50    1    1    2    0    0  0.18369295739E-01 -0.10335909860E-01  0.74659521428E-02  0.50000500000E+01  0.50000000000E+01 0. -1.
</event>
<event>
 4    1  0.4993983E-021  0.5000050E+01  0.7818608E-02  0.2136455E+00
        -11   -1    0    0    0    0  0.00000000000E+00  0.00000000000E+00  0.50000499739E+01  0.50000500000E+01  0.51100000000E-03 0. -1.
         11   -1    0    0    0    0 -0.00000000000E+00 -0.00000000000E+00 -0.50000499739E+01  0.50000500000E+01  0.51100000000E-03 0.  1.
         50    1    1    2    0    0  0.37953140424E-02  0.22035501910E-01 -0.18640512593E-03  0.50000500000E+01  0.50000000000E+01 0.  1.
         50    1    1    2    0    0 -0.37953140424E-02 -0.22035501910E-01  0.18640512593E-03  0.50000500000E+01  0.50000000000E+01 0. -1.
</event>
<event>
 4    1  0.4993983E-021  0.5000050E+01  0.7818608E-02  0.2136455E+00
        -11   -1    0    0    0    0  0.00000000000E+00  0.00000000000E+00  0.50000499739E+01  0.50000500000E+01  0.51100000000E-03 0. -1.
         11   -1    0    0    0    0 -0.00000000000E+00 -0.00000000000E+00 -0.50000499739E+01  0.50000500000E+01  0.51100000000E-03 0.  1.
         50    1    1    2    0    0 -0.11331773804E-01 -0.17167923355E-01 -0.87667445572E-02  0.50000500000E+01  0.50000000000E+01 0.  1.
         50    1    1    2    0    0  0.11331773804E-01  0.17167923355E-01  0.87667445572E-02  0.50000500000E+01  0.50000000000E+01 0. -1.
</event>
<event>
 4    1  0.4993983E-021  0.5000050E+01  0.7818608E-02  0.2136455E+00
        -11   -1    0    0    0    0  0.00000000000E+00  0.00000000000E+00  0.50000499739E+01  0.50000500000E+01  0.51100000000E-03 0.  1.
         11   -1    0    0    0    0 -0.00000000000E+00 -0.00000000000E+00 -0.50000499739E+01  0.50000500000E+01  0.51100000000E-03 0. -1.
         50    1    1    2    0    0 -0.16096608516E-01  0.14280643257E-01  0.60798784894E-02  0.50000500000E+01  0.50000000000E+01 0.  1.
         50    1    1    2    0    0  0.16096608516E-01 -0.14280643257E-01 -0.60798784894E-02  0.50000500000E+01  0.50000000000E+01 0.  1.
</event>
<event>
 4    1  0.4993983E-021  0.5000050E+01  0.7818608E-02  0.2136455E+00
        -11   -1    0    0    0    0  0.00000000000E+00  0.00000000000E+00  0.50000499739E+01  0.50000500000E+01  0.51100000000E-03 0. -1.
         11   -1    0    0    0    0 -0.00000000000E+00 -0.00000000000E+00 -0.50000499739E+01  0.50000500000E+01  0.51100000000E-03 0.  1.
         50    1    1    2    0    0  0.12527946180E-01  0.17070255172E-01 -0.71874510672E-02  0.50000500000E+01  0.50000000000E+01 0.  1.
         50    1    1    2    0    0 -0.12527946180E-01 -0.17070255172E-01  0.71874510672E-02  0.50000500000E+01  0.50000000000E+01 0. -1.
</event>
<event>
 4    1  0.4993983E-021  0.5000050E+01  0.7818608E-02  0.2136455E+00
        -11   -1    0    0    0    0  0.00000000000E+00  0.00000000000E+00  0.50000499739E+01  0.50000500000E+01  0.51100000000E-03 0.  1.
         11   -1    0    0    0    0 -0.00000000000E+00 -0.00000000000E+00 -0.50000499739E+01  0.50000500000E+01  0.51100000000E-03 0. -1.
         50    1    1    2    0    0  0.11167220545E-01 -0.18413811364E-01  0.60189065753E-02  0.50000500000E+01  0.50000000000E+01 0.  1.
         50    1    1    2    0    0 -0.11167220545E-01  0.18413811364E-01 -0.60189065753E-02  0.50000500000E+01  0.50000000000E+01 0.  0.
</event>
<event>
 4    1  0.4993983E-021  0.5000050E+01  0.7818608E-02  0.2136455E+00
        -11   -1    0    0    0    0  0.00000000000E+00  0.00000000000E+00  0.50000499739E+01  0.50000500000E+01  0.51100000000E-03 0. -1.
         11   -1    0    0    0    0 -0.00000000000E+00 -0.00000000000E+00 -0.50000499739E+01  0.50000500000E+01  0.51100000000E-03 0.  1.
         50    1    1    2    0    0  0.20253420326E-01 -0.94255649116E-02 -0.97989346825E-03  0.50000500000E+01  0.50000000000E+01 0.  1.
         50    1    1    2    0    0 -0.20253420326E-01  0.94255649116E-02  0.97989346825E-03  0.50000500000E+01  0.50000000000E+01 0.  0.
</event>
<event>
 4    1  0.4993983E-021  0.5000050E+01  0.7818608E-02  0.2136455E+00
        -11   -1    0    0    0    0  0.00000000000E+00  0.00000000000E+00  0.50000499739E+01  0.50000500000E+01  0.51100000000E-03 0. -1.
         11   -1    0    0    0    0 -0.00000000000E+00 -0.00000000000E+00 -0.50000499739E+01  0.50000500000E+01  0.51100000000E-03 0.  1.
         50    1    1    2    0    0  0.56003281611E-02  0.14800561070E-02  0.21597413234E-01  0.50000500000E+01  0.50000000000E+01 0.  0.
         50    1    1    2    0    0 -0.56003281611E-02 -0.14800561070E-02 -0.21597413234E-01  0.50000500000E+01  0.50000000000E+01 0.  1.
</event>
<event>
 4    1  0.4993983E-021  0.5000050E+01  0.7818608E-02  0.2136455E+00
        -11   -1    0    0    0    0  0.00000000000E+00  0.00000000000E+00  0.50000499739E+01  0.50000500000E+01  0.51100000000E-03 0.  1.
         11   -1    0    0    0    0 -0.00000000000E+00 -0.00000000000E+00 -0.50000499739E+01  0.50000500000E+01  0.51100000000E-03 0. -1.
         50    1    1    2    0    0  0.98919362262E-02 -0.18261342421E-01 -0.82870664701E-02  0.50000500000E+01  0.50000000000E+01 0.  0.
         50    1    1    2    0    0 -0.98919362262E-02  0.18261342421E-01  0.82870664701E-02  0.50000500000E+01  0.50000000000E+01 0. -1.
</event>
<event>
 4    1  0.4993983E-021  0.5000050E+01  0.7818608E-02  0.2136455E+00
        -11   -1    0    0    0    0  0.00000000000E+00  0.00000000000E+00  0.50000499739E+01  0.50000500000E+01  0.51100000000E-03 0. -1.
         11   -1    0    0    0    0 -0.00000000000E+00 -0.00000000000E+00 -0.50000499739E+01  0.50000500000E+01  0.51100000000E-03 0.  1.
         50    1    1    2    0    0 -0.16774502993E-02  0.68287947492E-02  0.21226309683E-01  0.50000500000E+01  0.50000000000E+01 0. -1.
         50    1    1    2    0    0  0.16774502993E-02 -0.68287947492E-02 -0.21226309683E-01  0.50000500000E+01  0.50000000000E+01 0.  0.
</event>
<event>
 4    1  0.4993983E-021  0.5000050E+01  0.7818608E-02  0.2136455E+00
        -11   -1    0    0    0    0  0.00000000000E+00  0.00000000000E+00  0.50000499739E+01  0.50000500000E+01  0.51100000000E-03 0.  1.
         11   -1    0    0    0    0 -0.00000000000E+00 -0.00000000000E+00 -0.50000499739E+01  0.50000500000E+01  0.51100000000E-03 0. -1.
         50    1    1    2    0    0  0.16899290336E-01  0.12359570533E-02 -0.14590712672E-01  0.50000500000E+01  0.50000000000E+01 0.  1.
         50    1    1    2    0    0 -0.16899290336E-01 -0.12359570533E-02  0.14590712672E-01  0.50000500000E+01  0.50000000000E+01 0.  1.
</event>
<event>
 4    1  0.4993983E-021  0.5000050E+01  0.7818608E-02  0.2136455E+00
        -11   -1    0    0    0    0  0.00000000000E+00  0.00000000000E+00  0.50000499739E+01  0.50000500000E+01  0.51100000000E-03 0.  1.
         11   -1    0    0    0    0 -0.00000000000E+00 -0.00000000000E+00 -0.50000499739E+01  0.50000500000E+01  0.51100000000E-03 0. -1.
         50    1    1    2    0    0 -0.32595722177E-02  0.54553348004E-02 -0.21438680257E-01  0.50000500000E+01  0.50000000000E+01 0.  0.
         50    1    1    2    0    0  0.32595722177E-02 -0.54553348004E-02  0.21438680257E-01  0.50000500000E+01  0.50000000000E+01 0.  1.
</event>
<event>
 4    1  0.4993983E-021  0.5000050E+01  0.7818608E-02  0.2136455E+00
        -11   -1    0    0    0    0  0.00000000000E+00  0.00000000000E+00  0.50000499739E+01  0.50000500000E+01  0.51100000000E-03 0. -1.
         11   -1    0    0    0    0 -0.00000000000E+00 -0.00000000000E+00 -0.50000499739E+01  0.50000500000E+01  0.51100000000E-03 0.  1.
         50    1    1    2    0    0 -0.62855017149E-02  0.12145364030E-01 -0.17691384931E-01  0.50000500000E+01  0.50000000000E+01 0.  1.
         50    1    1    2    0    0  0.62855017149E-02 -0.12145364030E-01  0.17691384931E-01  0.50000500000E+01  0.50000000000E+01 0.  0.
</event>
<event>
 4    1  0.4993983E-021  0.5000050E+01  0.7818608E-02  0.2136455E+00
        -11   -1    0    0    0    0  0.00000000000E+00  0.00000000000E+00  0.50000499739E+01  0.50000500000E+01  0.51100000000E-03 0.  1.
         11   -1    0    0    0    0 -0.00000000000E+00 -0.00000000000E+00 -0.50000499739E+01  0.50000500000E+01  0.51100000000E-03 0. -1.
         50    1    1    2    0    0 -0.77662863569E-02 -0.20745089804E-01 -0.30542667294E-02  0.50000500000E+01  0.50000000000E+01 0.  0.
         50    1    1    2    0    0  0.77662863569E-02  0.20745089804E-01  0.30542667294E-02  0.50000500000E+01  0.50000000000E+01 0.  1.
</event>
<event>
 4    1  0.4993983E-021  0.5000050E+01  0.7818608E-02  0.2136455E+00
        -11   -1    0    0    0    0  0.00000000000E+00  0.00000000000E+00  0.50000499739E+01  0.50000500000E+01  0.51100000000E-03 0. -1.
         11   -1    0    0    0    0 -0.00000000000E+00 -0.00000000000E+00 -0.50000499739E+01  0.50000500000E+01  0.51100000000E-03 0.  1.
         50    1    1    2    0    0  0.20721013886E-01  0.18037607760E-02 -0.82090517471E-02  0.50000500000E+01  0.50000000000E+01 0.  0.
         50    1    1    2    0    0 -0.20721013886E-01 -0.18037607760E-02  0.82090517471E-02  0.50000500000E+01  0.50000000000E+01 0.  1.
</event>
<event>
 4    1  0.4993983E-021  0.5000050E+01  0.7818608E-02  0.2136455E+00
        -11   -1    0    0    0    0  0.00000000000E+00  0.00000000000E+00  0.50000499739E+01  0.50000500000E+01  0.51100000000E-03 0.  1.
         11   -1    0    0    0    0 -0.00000000000E+00 -0.00000000000E+00 -0.50000499739E+01  0.50000500000E+01  0.51100000000E-03 0. -1.
         50    1    1    2    0    0  0.16803618498E-01 -0.14629523745E-01  0.19020884202E-02  0.50000500000E+01  0.50000000000E+01 0. -1.
         50    1    1    2    0    0 -0.16803618498E-01  0.14629523745E-01 -0.19020884202E-02  0.50000500000E+01  0.50000000000E+01 0.  1.
</event>
<event>
 4    1  0.4993983E-021  0.5000050E+01  0.7818608E-02  0.2136455E+00
        -11   -1    0    0    0    0  0.00000000000E+00  0.00000000000E+00  0.50000499739E+01  0.50000500000E+01  0.51100000000E-03 0.  1.
         11   -1    0    0    0    0 -0.00000000000E+00 -0.00000000000E+00 -0.50000499739E+01  0.50000500000E+01  0.51100000000E-03 0. -1.
         50    1    1    2    0    0 -0.10674873189E-01 -0.17840046444E-01  0.82330022034E-02  0.50000500000E+01  0.50000000000E+01 0.  1.
         50    1    1    2    0    0  0.10674873189E-01  0.17840046444E-01 -0.82330022034E-02  0.50000500000E+01  0.50000000000E+01 0. -1.
</event>
<event>
 4    1  0.4993983E-021  0.5000050E+01  0.7818608E-02  0.2136455E+00
        -11   -1    0    0    0    0  0.00000000000E+00  0.00000000000E+00  0.50000499739E+01  0.50000500000E+01  0.51100000000E-03 0.  1.
         11   -1    0    0    0    0 -0.00000000000E+00 -0.00000000000E+00 -0.50000499739E+01  0.50000500000E+01  0.51100000000E-03 0. -1.
         50    1    1    2    0    0  0.19126221818E-01 -0.20791724003E-02 -0.11395928268E-01  0.50000500000E+01  0.50000000000E+01 0.  0.
         50    1    1    2    0    0 -0.19126221818E-01  0.20791724003E-02  0.11395928268E-01  0.50000500000E+01  0.50000000000E+01 0.  0.
</event>
<event>
 4    1  0.4993983E-021  0.5000050E+01  0.7818608E-02  0.2136455E+00
        -11   -1    0    0    0    0  0.00000000000E+00  0.00000000000E+00  0.50000499739E+01  0.50000500000E+01  0.51100000000E-03 0. -1.
         11   -1    0    0    0    0 -0.00000000000E+00 -0.00000000000E+00 -0.50000499739E+01  0.50000500000E+01  0.51100000000E-03 0.  1.
         50    1    1    2    0    0 -0.20853176047E-02  0.10027988328E-01 -0.19876956522E-01  0.50000500000E+01  0.50000000000E+01 0.  0.
         50    1    1    2    0    0  0.20853176047E-02 -0.10027988328E-01  0.19876956522E-01  0.50000500000E+01  0.50000000000E+01 0. -1.
</event>
<event>
 4    1  0.4993983E-021  0.5000050E+01  0.7818608E-02  0.2136455E+00
        -11   -1    0    0    0    0  0.00000000000E+00  0.00000000000E+00  0.50000499739E+01  0.50000500000E+01  0.51100000000E-03 0. -1.
         11   -1    0    0    0    0 -0.00000000000E+00 -0.00000000000E+00 -0.50000499739E+01  0.50000500000E+01  0.51100000000E-03 0.  1.
         50    1    1    2    0    0 -0.13826986520E-01 -0.12992899281E-01 -0.11832223462E-01  0.50000500000E+01  0.50000000000E+01 0. -1.
         50    1    1    2    0    0  0.13826986520E-01  0.12992899281E-01  0.11832223462E-01  0.50000500000E+01  0.50000000000E+01 0.  0.
</event>
<event>
 4    1  0.4993983E-021  0.5000050E+01  0.7818608E-02  0.2136455E+00
        -11   -1    0    0    0    0  0.00000000000E+00  0.00000000000E+00  0.50000499739E+01  0.50000500000E+01  0.51100000000E-03 0.  1.
         11   -1    0    0    0    0 -0.00000000000E+00 -0.00000000000E+00 -0.50000499739E+01  0.50000500000E+01  0.51100000000E-03 0. -1.
         50    1    1    2    0    0  0.22038524945E-02  0.19448256117E-01  0.10812532922E-01  0.50000500000E+01  0.50000000000E+01 0.  1.
         50    1    1    2    0    0 -0.22038524945E-02 -0.19448256117E-01 -0.10812532922E-01  0.50000500000E+01  0.50000000000E+01 0. -1.
</event>
<event>
 4    1  0.4993983E-021  0.5000050E+01  0.7818608E-02  0.2136455E+00
        -11   -1    0    0    0    0  0.00000000000E+00  0.00000000000E+00  0.50000499739E+01  0.50000500000E+01  0.51100000000E-03 0. -1.
         11   -1    0    0    0    0 -0.00000000000E+00 -0.00000000000E+00 -0.50000499739E+01  0.50000500000E+01  0.51100000000E-03 0.  1.
         50    1    1    2    0    0  0.95998997237E-03 -0.15552191875E-02 -0.22285919602E-01  0.50000500000E+01  0.50000000000E+01 0.  1.
         50    1    1    2    0    0 -0.95998997237E-03  0.15552191875E-02  0.22285919602E-01  0.50000500000E+01  0.50000000000E+01 0.  0.
</event>
<event>
 4    1  0.4993983E-021  0.5000050E+01  0.7818608E-02  0.2136455E+00
        -11   -1    0    0    0    0  0.00000000000E+00  0.00000000000E+00  0.50000499739E+01  0.50000500000E+01  0.51100000000E-03 0.  1.
         11   -1    0    0    0    0 -0.00000000000E+00 -0.00000000000E+00 -0.50000499739E+01  0.50000500000E+01  0.51100000000E-03 0. -1.
         50    1    1    2    0    0 -0.16191335408E-01 -0.56374623749E-02  0.14354865923E-01  0.50000500000E+01  0.50000000000E+01 0. -1.
         50    1    1    2    0    0  0.16191335408E-01  0.56374623749E-02 -0.14354865923E-01  0.50000500000E+01  0.50000000000E+01 0.  0.
</event>
<event>
 4    1  0.4993983E-021  0.5000050E+01  0.7818608E-02  0.2136455E+00
        -11   -1    0    0    0    0  0.00000000000E+00  0.00000000000E+00  0.50000499739E+01  0.50000500000E+01  0.51100000000E-03 0. -1.
         11   -1    0    0    0    0 -0.00000000000E+00 -0.00000000000E+00 -0.50000499739E+01  0.50000500000E+01  0.51100000000E-03 0.  1.
         50    1    1    2    0    0 -0.15651337858E-01 -0.96709152194E-02  0.12708718349E-01  0.50000500000E+01  0.50000000000E+01 0. -1.
         50    1    1    2    0    0  0.15651337858E-01  0.96709152194E-02 -0.12708718349E-01  0.50000500000E+01  0.50000000000E+01 0.  1.
</event>
<event>
 4    1  0.4993983E-021  0.5000050E+01  0.7818608E-02  0.2136455E+00
        -11   -1    0    0    0    0  0.00000000000E+00  0.00000000000E+00  0.50000499739E+01  0.50000500000E+01  0.51100000000E-03 0. -1.
         11   -1    0    0    0    0 -0.00000000000E+00 -0.00000000000E+00 -0.50000499739E+01  0.50000500000E+01  0.51100000000E-03 0.  1.
         50    1    1    2    0    0  0.21736033935E-01  0.15883521669E-02 -0.50024460167E-02  0.50000500000E+01  0.50000000000E+01 0.  1.
         50    1    1    2    0    0 -0.21736033935E-01 -0.15883521669E-02  0.50024460167E-02  0.50000500000E+01  0.50000000000E+01 0.  0.
</event>
<event>
 4    1  0.4993983E-021  0.5000050E+01  0.7818608E-02  0.2136455E+00
        -11   -1    0    0    0    0  0.00000000000E+00  0.00000000000E+00  0.50000499739E+01  0.50000500000E+01  0.51100000000E-03 0.  1.
         11   -1    0    0    0    0 -0.00000000000E+00 -0.00000000000E+00 -0.50000499739E+01  0.50000500000E+01  0.51100000000E-03 0. -1.
         50    1    1    2    0    0  0.23630004941E-02 -0.20430316263E-01 -0.87761555400E-02  0.50000500000E+01  0.50000000000E+01 0.  0.
         50    1    1    2    0    0 -0.23630004941E-02  0.20430316263E-01  0.87761555400E-02  0.50000500000E+01  0.50000000000E+01 0.  0.
</event>
<event>
 4    1  0.4993983E-021  0.5000050E+01  0.7818608E-02  0.2136455E+00
        -11   -1    0    0    0    0  0.00000000000E+00  0.00000000000E+00  0.50000499739E+01  0.50000500000E+01  0.51100000000E-03 0. -1.
         11   -1    0    0    0    0 -0.00000000000E+00 -0.00000000000E+00 -0.50000499739E+01  0.50000500000E+01  0.51100000000E-03 0.  1.
         50    1    1    2    0    0  0.18562333486E-01  0.81579923344E-03  0.12440930317E-01  0.50000500000E+01  0.50000000000E+01 0.  1.
         50    1    1    2    0    0 -0.18562333486E-01 -0.81579923344E-03 -0.12440930317E-01  0.50000500000E+01  0.50000000000E+01 0. -1.
</event>
<event>
 4    1  0.4993983E-021  0.5000050E+01  0.7818608E-02  0.2136455E+00
        -11   -1    0    0    0    0  0.00000000000E+00  0.00000000000E+00  0.50000499739E+01  0.50000500000E+01  0.51100000000E-03 0. -1.
         11   -1    0    0    0    0 -0.00000000000E+00 -0.00000000000E+00 -0.50000499739E+01  0.50000500000E+01  0.51100000000E-03 0.  1.
         50    1    1    2    0    0 -0.20338879733E-01 -0.71187020499E-02  0.59713107712E-02  0.50000500000E+01  0.50000000000E+01 0.  0.
         50    1    1    2    0    0  0.20338879733E-01  0.71187020499E-02 -0.59713107712E-02  0.50000500000E+01  0.50000000000E+01 0.  0.
</event>
<event>
 4    1  0.4993983E-021  0.5000050E+01  0.7818608E-02  0.2136455E+00
        -11   -1    0    0    0    0  0.00000000000E+00  0.00000000000E+00  0.50000499739E+01  0.50000500000E+01  0.51100000000E-03 0. -1.
         11   -1    0    0    0    0 -0.00000000000E+00 -0.00000000000E+00 -0.50000499739E+01  0.50000500000E+01  0.51100000000E-03 0.  1.
         50    1    1    2    0    0 -0.63035818811E-02 -0.51590893114E-02  0.20824292376E-01  0.50000500000E+01  0.50000000000E+01 0. -1.
         50    1    1    2    0    0  0.63035818811E-02  0.51590893114E-02 -0.20824292376E-01  0.50000500000E+01  0.50000000000E+01 0.  0.
</event>
<event>
 4    1  0.4993983E-021  0.5000050E+01  0.7818608E-02  0.2136455E+00
        -11   -1    0    0    0    0  0.00000000000E+00  0.00000000000E+00  0.50000499739E+01  0.50000500000E+01  0.51100000000E-03 0.  1.
         11   -1    0    0    0    0 -0.00000000000E+00 -0.00000000000E+00 -0.50000499739E+01  0.50000500000E+01  0.51100000000E-03 0. -1.
         50    1    1    2    0    0 -0.18048948109E-01 -0.11087615416E-01 -0.71625942609E-02  0.50000500000E+01  0.50000000000E+01 0.  0.
         50    1    1    2    0    0  0.18048948109E-01  0.11087615416E-01  0.71625942609E-02  0.50000500000E+01  0.50000000000E+01 0.  0.
</event>
<event>
 4    1  0.4993983E-021  0.5000050E+01  0.7818608E-02  0.2136455E+00
        -11   -1    0    0    0    0  0.00000000000E+00  0.00000000000E+00  0.50000499739E+01  0.50000500000E+01  0.51100000000E-03 0.  1.
         11   -1    0    0    0    0 -0.00000000000E+00 -0.00000000000E+00 -0.50000499739E+01  0.50000500000E+01  0.51100000000E-03 0. -1.
         50    1    1    2    0    0 -0.12512789435E-01 -0.15943623925E-01 -0.94463462079E-02  0.50000500000E+01  0.50000000000E+01 0.  0.
         50    1    1    2    0    0  0.12512789435E-01  0.15943623925E-01  0.94463462079E-02  0.50000500000E+01  0.50000000000E+01 0. -1.
</event>
<event>
 4    1  0.4993983E-021  0.5000050E+01  0.7818608E-02  0.2136455E+00
        -11   -1    0    0    0    0  0.00000000000E+00  0.00000000000E+00  0.50000499739E+01  0.50000500000E+01  0.51100000000E-03 0.  1.
         11   -1    0    0    0    0 -0.00000000000E+00 -0.00000000000E+00 -0.50000499739E+01  0.50000500000E+01  0.51100000000E-03 0. -1.
         50    1    1    2    0    0 -0.15377540588E-01 -0.13166643669E-01 -0.94959591373E-02  0.50000500000E+01  0.50000000000E+01 0. -1.
         50    1    1    2    0    0  0.15377540588E-01  0.13166643669E-01  0.94959591373E-02  0.50000500000E+01  0.50000000000E+01 0. -1.
</event>
<event>
 4    1  0.4993983E-021  0.5000050E+01  0.7818608E-02  0.2136455E+00
        -11   -1    0    0    0    0  0.00000000000E+00  0.00000000000E+00  0.50000499739E+01  0.50000500000E+01  0.51100000000E-03 0.  1.
         11   -1    0    0    0    0 -0.00000000000E+00 -0.00000000000E+00 -0.50000499739E+01  0.50000500000E+01  0.51100000000E-03 0. -1.
         50    1    1    2    0    0  0.19680176358E-01 -0.10523023973E-01  0.13996874506E-02  0.50000500000E+01  0.50000000000E+01 0. -1.
         50    1    1    2    0    0 -0.19680176358E-01  0.10523023973E-01 -0.13996874506E-02  0.50000500000E+01  0.50000000000E+01 0.  1.
</event>
<event>
 4    1  0.4993983E-021  0.5000050E+01  0.7818608E-02  0.2136455E+00
        -11   -1    0    0    0    0  0.00000000000E+00  0.00000000000E+00  0.50000499739E+01  0.50000500000E+01  0.51100000000E-03 0.  1.
         11   -1    0    0    0    0 -0.00000000000E+00 -0.00000000000E+00 -0.50000499739E+01  0.50000500000E+01  0.51100000000E-03 0. -1.
         50    1    1    2    0    0 -0.14780208586E-01  0.10554135075E-01 -0.13044468826E-01  0.50000500000E+01  0.50000000000E+01 0.  1.
         50    1    1    2    0    0  0.14780208586E-01 -0.10554135075E-01  0.13044468826E-01  0.50000500000E+01  0.50000000000E+01 0.  0.
</event>
<event>
 4    1  0.4993983E-021  0.5000050E+01  0.7818608E-02  0.2136455E+00
        -11   -1    0    0    0    0  0.00000000000E+00  0.00000000000E+00  0.50000499739E+01  0.50000500000E+01  0.51100000000E-03 0. -1.
         11   -1    0    0    0    0 -0.00000000000E+00 -0.00000000000E+00 -0.50000499739E+01  0.50000500000E+01  0.51100000000E-03 0.  1.
         50    1    1    2    0    0 -0.98960800586E-02 -0.30641167083E-02  0.19816187531E-01  0.50000500000E+01  0.50000000000E+01 0. -1.
         50    1    1    2    0    0  0.98960800586E-02  0.30641167083E-02 -0.19816187531E-01  0.50000500000E+01  0.50000000000E+01 0.  0.
</event>
<event>
 4    1  0.4993983E-021  0.5000050E+01  0.7818608E-02  0.2136455E+00
        -11   -1    0    0    0    0  0.00000000000E+00  0.00000000000E+00  0.50000499739E+01  0.50000500000E+01  0.51100000000E-03 0.  1.
         11   -1    0    0    0    0 -0.00000000000E+00 -0.00000000000E+00 -0.50000499739E+01  0.50000500000E+01  0.51100000000E-03 0. -1.
         50    1    1    2    0    0 -0.66314238063E-02 -0.55417472710E-02 -0.20623184902E-01  0.50000500000E+01  0.50000000000E+01 0. -1.
         50    1    1    2    0    0  0.66314238063E-02  0.55417472710E-02  0.20623184902E-01  0.50000500000E+01  0.50000000000E+01 0.  0.
</event>
<event>
 4    1  0.4993983E-021  0.5000050E+01  0.7818608E-02  0.2136455E+00
        -11   -1    0    0    0    0  0.00000000000E+00  0.00000000000E+00  0.50000499739E+01  0.50000500000E+01  0.51100000000E-03 0. -1.
         11   -1    0    0    0    0 -0.00000000000E+00 -0.00000000000E+00 -0.50000499739E+01  0.50000500000E+01  0.51100000000E-03 0.  1.
         50    1    1    2    0    0 -0.65049946780E-02 -0.21346870801E-01  0.14137366311E-02  0.50000500000E+01  0.50000000000E+01 0. -1.
         50    1    1    2    0    0  0.65049946780E-02  0.21346870801E-01 -0.14137366311E-02  0.50000500000E+01  0.50000000000E+01 0.  1.
</event>
<event>
 4    1  0.4993983E-021  0.5000050E+01  0.7818608E-02  0.2136455E+00
        -11   -1    0    0    0    0  0.00000000000E+00  0.00000000000E+00  0.50000499739E+01  0.50000500000E+01  0.51100000000E-03 0. -1.
         11   -1    0    0    0    0 -0.00000000000E+00 -0.00000000000E+00 -0.50000499739E+01  0.50000500000E+01  0.51100000000E-03 0.  1.
         50    1    1    2    0    0 -0.12448868541E-01 -0.14219095222E-02  0.18520430485E-01  0.50000500000E+01  0.50000000000E+01 0. -1.
         50    1    1    2    0    0  0.12448868541E-01  0.14219095222E-02 -0.18520430485E-01  0.50000500000E+01  0.50000000000E+01 0.  1.
</event>
<event>
 4    1  0.4993983E-021  0.5000050E+01  0.7818608E-02  0.2136455E+00
        -11   -1    0    0    0    0  0.00000000000E+00  0.00000000000E+00  0.50000499739E+01  0.50000500000E+01  0.51100000000E-03 0.  1.
         11   -1    0    0    0    0 -0.00000000000E+00 -0.00000000000E+00 -0.50000499739E+01  0.50000500000E+01  0.51100000000E-03 0. -1.
         50    1    1    2    0    0  0.33878885468E-02  0.62233125070E-02  0.21208373173E-01  0.50000500000E+01  0.50000000000E+01 0.  0.
         50    1    1    2    0    0 -0.33878885468E-02 -0.62233125070E-02 -0.21208373173E-01  0.50000500000E+01  0.50000000000E+01 0. -1.
</event>
<event>
 4    1  0.4993983E-021  0.5000050E+01  0.7818608E-02  0.2136455E+00
        -11   -1    0    0    0    0  0.00000000000E+00  0.00000000000E+00  0.50000499739E+01  0.50000500000E+01  0.51100000000E-03 0. -1.
         11   -1    0    0    0    0 -0.00000000000E+00 -0.00000000000E+00 -0.50000499739E+01  0.50000500000E+01  0.51100000000E-03 0.  1.
         50    1    1    2    0    0  0.18549310803E-01 -0.67069270451E-02 -0.10532933985E-01  0.50000500000E+01  0.50000000000E+01 0.  1.
         50    1    1    2    0    0 -0.18549310803E-01  0.67069270451E-02  0.10532933985E-01  0.50000500000E+01  0.50000000000E+01 0. -1.
</event>
<event>
 4    1  0.4993983E-021  0.5000050E+01  0.7818608E-02  0.2136455E+00
        -11   -1    0    0    0    0  0.00000000000E+00  0.00000000000E+00  0.50000499739E+01  0.50000500000E+01  0.51100000000E-03 0.  1.
         11   -1    0    0    0    0 -0.00000000000E+00 -0.00000000000E+00 -0.50000499739E+01  0.50000500000E+01  0.51100000000E-03 0. -1.
         50    1    1    2    0    0  0.18449449318E-01 -0.12526472536E-01  0.16455411476E-02  0.50000500000E+01  0.50000000000E+01 0.  1.
         50    1    1    2    0    0 -0.18449449318E-01  0.12526472536E-01 -0.16455411476E-02  0.50000500000E+01  0.50000000000E+01 0. -1.
</event>
<event>
 4    1  0.4993983E-021  0.5000050E+01  0.7818608E-02  0.2136455E+00
        -11   -1    0    0    0    0  0.00000000000E+00  0.00000000000E+00  0.50000499739E+01  0.50000500000E+01  0.51100000000E-03 0.  1.
         11   -1    0    0    0    0 -0.00000000000E+00 -0.00000000000E+00 -0.50000499739E+01  0.50000500000E+01  0.51100000000E-03 0. -1.
         50    1    1    2    0    0 -0.33642625702E-02 -0.20883430479E-01 -0.72502806003E-02  0.50000500000E+01  0.50000000000E+01 0.  0.
         50    1    1    2    0    0  0.33642625702E-02  0.20883430479E-01  0.72502806003E-02  0.50000500000E+01  0.50000000000E+01 0.  0.
</event>
<event>
 4    1  0.4993983E-021  0.5000050E+01  0.7818608E-02  0.2136455E+00
        -11   -1    0    0    0    0  0.00000000000E+00  0.00000000000E+00  0.50000499739E+01  0.50000500000E+01  0.51100000000E-03 0. -1.
         11   -1    0    0    0    0 -0.00000000000E+00 -0.00000000000E+00 -0.50000499739E+01  0.50000500000E+01  0.51100000000E-03 0.  1.
         50    1    1    2    0    0  0.90351443932E-02  0.18098887261E-01 -0.95288480787E-02  0.50000500000E+01  0.50000000000E+01 0. -1.
         50    1    1    2    0    0 -0.90351443932E-02 -0.18098887261E-01  0.95288480787E-02  0.50000500000E+01  0.50000000000E+01 0. -1.
</event>
<event>
 4    1  0.4993983E-021  0.5000050E+01  0.7818608E-02  0.2136455E+00
        -11   -1    0    0    0    0  0.00000000000E+00  0.00000000000E+00  0.50000499739E+01  0.50000500000E+01  0.51100000000E-03 0. -1.
         11   -1    0    0    0    0 -0.00000000000E+00 -0.00000000000E+00 -0.50000499739E+01  0.50000500000E+01  0.51100000000E-03 0.  1.
         50    1    1    2    0    0 -0.11990257656E-01 -0.15944805500E-03  0.18873547564E-01  0.50000500000E+01  0.50000000000E+01 0.  1.
         50    1    1    2    0    0  0.11990257656E-01  0.15944805500E-03 -0.18873547564E-01  0.50000500000E+01  0.50000000000E+01 0.  0.
</event>
<event>
 4    1  0.4993983E-021  0.5000050E+01  0.7818608E-02  0.2136455E+00
        -11   -1    0    0    0    0  0.00000000000E+00  0.00000000000E+00  0.50000499739E+01  0.50000500000E+01  0.51100000000E-03 0.  1.
         11   -1    0    0    0    0 -0.00000000000E+00 -0.00000000000E+00 -0.50000499739E+01  0.50000500000E+01  0.51100000000E-03 0. -1.
         50    1    1    2    0    0 -0.17479098709E-02  0.21448692209E-01 -0.60746122172E-02  0.50000500000E+01  0.50000000000E+01 0.  1.
         50    1    1    2    0    0  0.17479098709E-02 -0.21448692209E-01  0.60746122172E-02  0.50000500000E+01  0.50000000000E+01 0. -1.
</event>
<event>
 4    1  0.4993983E-021  0.5000050E+01  0.7818608E-02  0.2136455E+00
        -11   -1    0    0    0    0  0.00000000000E+00  0.00000000000E+00  0.50000499739E+01  0.50000500000E+01  0.51100000000E-03 0. -1.
         11   -1    0    0    0    0 -0.00000000000E+00 -0.00000000000E+00 -0.50000499739E+01  0.50000500000E+01  0.51100000000E-03 0.  1.
         50    1    1    2    0    0 -0.97669657902E-03  0.64642134114E-02  0.21383697266E-01  0.50000500000E+01  0.50000000000E+01 0. -1.
         50    1    1    2    0    0  0.97669657902E-03 -0.64642134114E-02 -0.21383697266E-01  0.50000500000E+01  0.50000000000E+01 0.  0.
</event>
<event>
 4    1  0.4993983E-021  0.5000050E+01  0.7818608E-02  0.2136455E+00
        -11   -1    0    0    0    0  0.00000000000E+00  0.00000000000E+00  0.50000499739E+01  0.50000500000E+01  0.51100000000E-03 0.  1.
         11   -1    0    0    0    0 -0.00000000000E+00 -0.00000000000E+00 -0.50000499739E+01  0.50000500000E+01  0.51100000000E-03 0. -1.
         50    1    1    2    0    0 -0.17891176922E-01 -0.69074856986E-02 -0.11497605389E-01  0.50000500000E+01  0.50000000000E+01 0.  1.
         50    1    1    2    0    0  0.17891176922E-01  0.69074856986E-02  0.11497605389E-01  0.50000500000E+01  0.50000000000E+01 0.  0.
</event>
<event>
 4    1  0.4993983E-021  0.5000050E+01  0.7818608E-02  0.2136455E+00
        -11   -1    0    0    0    0  0.00000000000E+00  0.00000000000E+00  0.50000499739E+01  0.50000500000E+01  0.51100000000E-03 0. -1.
         11   -1    0    0    0    0 -0.00000000000E+00 -0.00000000000E+00 -0.50000499739E+01  0.50000500000E+01  0.51100000000E-03 0.  1.
         50    1    1    2    0    0 -0.34437744972E-02  0.17450999781E-01 -0.13550111580E-01  0.50000500000E+01  0.50000000000E+01 0.  1.
         50    1    1    2    0    0  0.34437744972E-02 -0.17450999781E-01  0.13550111580E-01  0.50000500000E+01  0.50000000000E+01 0. -1.
</event>
<event>
 4    1  0.4993983E-021  0.5000050E+01  0.7818608E-02  0.2136455E+00
        -11   -1    0    0    0    0  0.00000000000E+00  0.00000000000E+00  0.50000499739E+01  0.50000500000E+01  0.51100000000E-03 0. -1.
         11   -1    0    0    0    0 -0.00000000000E+00 -0.00000000000E+00 -0.50000499739E+01  0.50000500000E+01  0.51100000000E-03 0.  1.
         50    1    1    2    0    0  0.72335569375E-02 -0.10661118105E-01  0.18276178889E-01  0.50000500000E+01  0.50000000000E+01 0. -1.
         50    1    1    2    0    0 -0.72335569375E-02  0.10661118105E-01 -0.18276178889E-01  0.50000500000E+01  0.50000000000E+01 0.  1.
</event>
<event>
 4    1  0.4993983E-021  0.5000050E+01  0.7818608E-02  0.2136455E+00
        -11   -1    0    0    0    0  0.00000000000E+00  0.00000000000E+00  0.50000499739E+01  0.50000500000E+01  0.51100000000E-03 0.  1.
         11   -1    0    0    0    0 -0.00000000000E+00 -0.00000000000E+00 -0.50000499739E+01  0.50000500000E+01  0.51100000000E-03 0. -1.
         50    1    1    2    0    0  0.63429926104E-04  0.28414929227E-02 -0.22179368670E-01  0.50000500000E+01  0.50000000000E+01 0.  0.
         50    1    1    2    0    0 -0.63429926104E-04 -0.28414929227E-02  0.22179368670E-01  0.50000500000E+01  0.50000000000E+01 0.  1.
</event>
<event>
 4    1  0.4993983E-021  0.5000050E+01  0.7818608E-02  0.2136455E+00
        -11   -1    0    0    0    0  0.00000000000E+00  0.00000000000E+00  0.50000499739E+01  0.50000500000E+01  0.51100000000E-03 0. -1.
         11   -1    0    0    0    0 -0.00000000000E+00 -0.00000000000E+00 -0.50000499739E+01  0.50000500000E+01  0.51100000000E-03 0.  1.
         50    1    1    2    0    0  0.11247403328E-01  0.19134854505E-01  0.27121507017E-02  0.50000500000E+01  0.50000000000E+01 0. -1.
         50    1    1    2    0    0 -0.11247403328E-01 -0.19134854505E-01 -0.27121507017E-02  0.50000500000E+01  0.50000000000E+01 0.  1.
</event>
<event>
 4    1  0.4993983E-021  0.5000050E+01  0.7818608E-02  0.2136455E+00
        -11   -1    0    0    0    0  0.00000000000E+00  0.00000000000E+00  0.50000499739E+01  0.50000500000E+01  0.51100000000E-03 0.  1.
         11   -1    0    0    0    0 -0.00000000000E+00 -0.00000000000E+00 -0.50000499739E+01  0.50000500000E+01  0.51100000000E-03 0. -1.
         50    1    1    2    0    0 -0.14660288768E-01 -0.95897365264E-02 -0.13896596223E-01  0.50000500000E+01  0.50000000000E+01 0.  1.
         50    1    1    2    0    0  0.14660288768E-01  0.95897365264E-02  0.13896596223E-01  0.50000500000E+01  0.50000000000E+01 0.  1.
</event>
<event>
 4    1  0.4993983E-021  0.5000050E+01  0.7818608E-02  0.2136455E+00
        -11   -1    0    0    0    0  0.00000000000E+00  0.00000000000E+00  0.50000499739E+01  0.50000500000E+01  0.51100000000E-03 0.  1.
         11   -1    0    0    0    0 -0.00000000000E+00 -0.00000000000E+00 -0.50000499739E+01  0.50000500000E+01  0.51100000000E-03 0. -1.
         50    1    1    2    0    0  0.18191501890E-01 -0.92220288349E-02  0.91665665953E-02  0.50000500000E+01  0.50000000000E+01 0.  1.
         50    1    1    2    0    0 -0.18191501890E-01  0.92220288349E-02 -0.91665665953E-02  0.50000500000E+01  0.50000000000E+01 0. -1.
</event>
<event>
 4    1  0.4993983E-021  0.5000050E+01  0.7818608E-02  0.2136455E+00
        -11   -1    0    0    0    0  0.00000000000E+00  0.00000000000E+00  0.50000499739E+01  0.50000500000E+01  0.51100000000E-03 0. -1.
         11   -1    0    0    0    0 -0.00000000000E+00 -0.00000000000E+00 -0.50000499739E+01  0.50000500000E+01  0.51100000000E-03 0.  1.
         50    1    1    2    0    0  0.89645581800E-02  0.15000188681E-01  0.13951112364E-01  0.50000500000E+01  0.50000000000E+01 0. -1.
         50    1    1    2    0    0 -0.89645581800E-02 -0.15000188681E-01 -0.13951112364E-01  0.50000500000E+01  0.50000000000E+01 0.  1.
</event>
<event>
 4    1  0.4993983E-021  0.5000050E+01  0.7818608E-02  0.2136455E+00
        -11   -1    0    0    0    0  0.00000000000E+00  0.00000000000E+00  0.50000499739E+01  0.50000500000E+01  0.51100000000E-03 0.  1.
         11   -1    0    0    0    0 -0.00000000000E+00 -0.00000000000E+00 -0.50000499739E+01  0.50000500000E+01  0.51100000000E-03 0. -1.
         50    1    1    2    0    0 -0.90609462799E-02  0.31064481776E-02  0.20205240217E-01  0.50000500000E+01  0.50000000000E+01 0.  0.
         50    1    1    2    0    0  0.90609462799E-02 -0.31064481776E-02 -0.20205240217E-01  0.50000500000E+01  0.50000000000E+01 0.  0.
</event>
<event>
 4    1  0.4993983E-021  0.5000050E+01  0.7818608E-02  0.2136455E+00
        -11   -1    0    0    0    0  0.00000000000E+00  0.00000000000E+00  0.50000499739E+01  0.50000500000E+01  0.51100000000E-03 0. -1.
         11   -1    0    0    0    0 -0.00000000000E+00 -0.00000000000E+00 -0.50000499739E+01  0.50000500000E+01  0.51100000000E-03 0.  1.
         50    1    1    2    0    0 -0.16628077994E-01  0.39543190792E-02  0.14417797434E-01  0.50000500000E+01  0.50000000000E+01 0.  0.
         50    1    1    2    0    0  0.16628077994E-01 -0.39543190792E-02 -0.14417797434E-01  0.50000500000E+01  0.50000000000E+01 0.  0.
</event>
<event>
 4    1  0.4993983E-021  0.5000050E+01  0.7818608E-02  0.2136455E+00
        -11   -1    0    0    0    0  0.00000000000E+00  0.00000000000E+00  0.50000499739E+01  0.50000500000E+01  0.51100000000E-03 0. -1.
         11   -1    0    0    0    0 -0.00000000000E+00 -0.00000000000E+00 -0.50000499739E+01  0.50000500000E+01  0.51100000000E-03 0.  1.
         50    1    1    2    0    0  0.24175153415E-02  0.37319478486E-02 -0.21914166305E-01  0.50000500000E+01  0.50000000000E+01 0.  1.
         50    1    1    2    0    0 -0.24175153415E-02 -0.37319478486E-02  0.21914166305E-01  0.50000500000E+01  0.50000000000E+01 0.  0.
</event>
<event>
 4    1  0.4993983E-021  0.5000050E+01  0.7818608E-02  0.2136455E+00
        -11   -1    0    0    0    0  0.00000000000E+00  0.00000000000E+00  0.50000499739E+01  0.50000500000E+01  0.51100000000E-03 0. -1.
         11   -1    0    0    0    0 -0.00000000000E+00 -0.00000000000E+00 -0.50000499739E+01  0.50000500000E+01  0.51100000000E-03 0.  1.
         50    1    1    2    0    0  0.13646473676E-01 -0.16206737452E-01 -0.71496795299E-02  0.50000500000E+01  0.50000000000E+01 0. -1.
         50    1    1    2    0    0 -0.13646473676E-01  0.16206737452E-01  0.71496795299E-02  0.50000500000E+01  0.50000000000E+01 0.  0.
</event>
<event>
 4    1  0.4993983E-021  0.5000050E+01  0.7818608E-02  0.2136455E+00
        -11   -1    0    0    0    0  0.00000000000E+00  0.00000000000E+00  0.50000499739E+01  0.50000500000E+01  0.51100000000E-03 0. -1.
         11   -1    0    0    0    0 -0.00000000000E+00 -0.00000000000E+00 -0.50000499739E+01  0.50000500000E+01  0.51100000000E-03 0.  1.
         50    1    1    2    0    0  0.61280716673E-02 -0.10471727529E-01 -0.18782762315E-01  0.50000500000E+01  0.50000000000E+01 0.  1.
         50    1    1    2    0    0 -0.61280716673E-02  0.10471727529E-01  0.18782762315E-01  0.50000500000E+01  0.50000000000E+01 0. -1.
</event>
<event>
 4    1  0.4993983E-021  0.5000050E+01  0.7818608E-02  0.2136455E+00
        -11   -1    0    0    0    0  0.00000000000E+00  0.00000000000E+00  0.50000499739E+01  0.50000500000E+01  0.51100000000E-03 0. -1.
         11   -1    0    0    0    0 -0.00000000000E+00 -0.00000000000E+00 -0.50000499739E+01  0.50000500000E+01  0.51100000000E-03 0.  1.
         50    1    1    2    0    0 -0.59146770270E-02 -0.19382462977E-02  0.21477017878E-01  0.50000500000E+01  0.50000000000E+01 0. -1.
         50    1    1    2    0    0  0.59146770270E-02  0.19382462977E-02 -0.21477017878E-01  0.50000500000E+01  0.50000000000E+01 0.  0.
</event>
<event>
 4    1  0.4993983E-021  0.5000050E+01  0.7818608E-02  0.2136455E+00
        -11   -1    0    0    0    0  0.00000000000E+00  0.00000000000E+00  0.50000499739E+01  0.50000500000E+01  0.51100000000E-03 0.  1.
         11   -1    0    0    0    0 -0.00000000000E+00 -0.00000000000E+00 -0.50000499739E+01  0.50000500000E+01  0.51100000000E-03 0. -1.
         50    1    1    2    0    0  0.14092469402E-01  0.17134043215E-01 -0.27981010112E-02  0.50000500000E+01  0.50000000000E+01 0.  1.
         50    1    1    2    0    0 -0.14092469402E-01 -0.17134043215E-01  0.27981010112E-02  0.50000500000E+01  0.50000000000E+01 0.  0.
</event>
<event>
 4    1  0.4993983E-021  0.5000050E+01  0.7818608E-02  0.2136455E+00
        -11   -1    0    0    0    0  0.00000000000E+00  0.00000000000E+00  0.50000499739E+01  0.50000500000E+01  0.51100000000E-03 0.  1.
         11   -1    0    0    0    0 -0.00000000000E+00 -0.00000000000E+00 -0.50000499739E+01  0.50000500000E+01  0.51100000000E-03 0. -1.
         50    1    1    2    0    0 -0.12833461621E-01  0.11168247863E-01  0.14511202655E-01  0.50000500000E+01  0.50000000000E+01 0.  1.
         50    1    1    2    0    0  0.12833461621E-01 -0.11168247863E-01 -0.14511202655E-01  0.50000500000E+01  0.50000000000E+01 0. -1.
</event>
<event>
 4    1  0.4993983E-021  0.5000050E+01  0.7818608E-02  0.2136455E+00
        -11   -1    0    0    0    0  0.00000000000E+00  0.00000000000E+00  0.50000499739E+01  0.50000500000E+01  0.51100000000E-03 0.  1.
         11   -1    0    0    0    0 -0.00000000000E+00 -0.00000000000E+00 -0.50000499739E+01  0.50000500000E+01  0.51100000000E-03 0. -1.
         50    1    1    2    0    0 -0.41865940993E-02  0.65010310351E-02  0.20981218395E-01  0.50000500000E+01  0.50000000000E+01 0.  0.
         50    1    1    2    0    0  0.41865940993E-02 -0.65010310351E-02 -0.20981218395E-01  0.50000500000E+01  0.50000000000E+01 0. -1.
</event>
<event>
 4    1  0.4993983E-021  0.5000050E+01  0.7818608E-02  0.2136455E+00
        -11   -1    0    0    0    0  0.00000000000E+00  0.00000000000E+00  0.50000499739E+01  0.50000500000E+01  0.51100000000E-03 0.  1.
         11   -1    0    0    0    0 -0.00000000000E+00 -0.00000000000E+00 -0.50000499739E+01  0.50000500000E+01  0.51100000000E-03 0. -1.
         50    1    1    2    0    0  0.10587141024E-01  0.14026954251E-01 -0.13826044241E-01  0.50000500000E+01  0.50000000000E+01 0.  0.
         50    1    1    2    0    0 -0.10587141024E-01 -0.14026954251E-01  0.13826044241E-01  0.50000500000E+01  0.50000000000E+01 0.  0.
</event>
<event>
 4    1  0.4993983E-021  0.5000050E+01  0.7818608E-02  0.2136455E+00
        -11   -1    0    0    0    0  0.00000000000E+00  0.00000000000E+00  0.50000499739E+01  0.50000500000E+01  0.51100000000E-03 0. -1.
         11   -1    0    0    0    0 -0.00000000000E+00 -0.00000000000E+00 -0.50000499739E+01  0.50000500000E+01  0.51100000000E-03 0.  1.
         50    1    1    2    0    0 -0.22164000024E-01  0.87640590959E-03  0.28269268841E-02  0.50000500000E+01  0.50000000000E+01 0.  0.
         50    1    1    2    0    0  0.22164000024E-01 -0.87640590959E-03 -0.28269268841E-02  0.50000500000E+01  0.50000000000E+01 0. -1.
</event>
<event>
 4    1  0.4993983E-021  0.5000050E+01  0.7818608E-02  0.2136455E+00
        -11   -1    0    0    0    0  0.00000000000E+00  0.00000000000E+00  0.50000499739E+01  0.50000500000E+01  0.51100000000E-03 0.  1.
         11   -1    0    0    0    0 -0.00000000000E+00 -0.00000000000E+00 -0.50000499739E+01  0.50000500000E+01  0.51100000000E-03 0. -1.
         50    1    1    2    0    0 -0.86809467527E-02 -0.93526108750E-02  0.18362252947E-01  0.50000500000E+01  0.50000000000E+01 0.  1.
         50    1    1    2    0    0  0.86809467527E-02  0.93526108750E-02 -0.18362252947E-01  0.50000500000E+01  0.50000000000E+01 0. -1.
</event>
<event>
 4    1  0.4993983E-021  0.5000050E+01  0.7818608E-02  0.2136455E+00
        -11   -1    0    0    0    0  0.00000000000E+00  0.00000000000E+00  0.50000499739E+01  0.50000500000E+01  0.51100000000E-03 0.  1.
         11   -1    0    0    0    0 -0.00000000000E+00 -0.00000000000E+00 -0.50000499739E+01  0.50000500000E+01  0.51100000000E-03 0. -1.
         50    1    1    2    0    0 -0.14602571080E-02 -0.77251621369E-02 -0.20933036548E-01  0.50000500000E+01  0.50000000000E+01 0.  0.
         50    1    1    2    0    0  0.14602571080E-02  0.77251621369E-02  0.20933036548E-01  0.50000500000E+01  0.50000000000E+01 0.  1.
</event>
<event>
 4    1  0.4993983E-021  0.5000050E+01  0.7818608E-02  0.2136455E+00
        -11   -1    0    0    0    0  0.00000000000E+00  0.00000000000E+00  0.50000499739E+01  0.50000500000E+01  0.51100000000E-03 0.  1.
         11   -1    0    0    0    0 -0.00000000000E+00 -0.00000000000E+00 -0.50000499739E+01  0.50000500000E+01  0.51100000000E-03 0. -1.
         50    1    1    2    0    0  0.26712112573E-02 -0.22181708459E-01 -0.91593681315E-03  0.50000500000E+01  0.50000000000E+01 0. -1.
         50    1    1    2    0    0 -0.26712112573E-02  0.22181708459E-01  0.91593681315E-03  0.50000500000E+01  0.50000000000E+01 0.  0.
</event>
<event>
 4    1  0.4993983E-021  0.5000050E+01  0.7818608E-02  0.2136455E+00
        -11   -1    0    0    0    0  0.00000000000E+00  0.00000000000E+00  0.50000499739E+01  0.50000500000E+01  0.51100000000E-03 0. -1.
         11   -1    0    0    0    0 -0.00000000000E+00 -0.00000000000E+00 -0.50000499739E+01  0.50000500000E+01  0.51100000000E-03 0.  1.
         50    1    1    2    0    0  0.63337592968E-02  0.20650716183E-01 -0.57822066975E-02  0.50000500000E+01  0.50000000000E+01 0.  0.
         50    1    1    2    0    0 -0.63337592968E-02 -0.20650716183E-01  0.57822066975E-02  0.50000500000E+01  0.50000000000E+01 0.  1.
</event>
<event>
 4    1  0.4993983E-021  0.5000050E+01  0.7818608E-02  0.2136455E+00
        -11   -1    0    0    0    0  0.00000000000E+00  0.00000000000E+00  0.50000499739E+01  0.50000500000E+01  0.51100000000E-03 0. -1.
         11   -1    0    0    0    0 -0.00000000000E+00 -0.00000000000E+00 -0.50000499739E+01  0.50000500000E+01  0.51100000000E-03 0.  1.
         50    1    1    2    0    0 -0.66822902259E-02  0.20820445044E-01  0.46753144812E-02  0.50000500000E+01  0.50000000000E+01 0.  0.
         50    1    1    2    0    0  0.66822902259E-02 -0.20820445044E-01 -0.46753144812E-02  0.50000500000E+01  0.50000000000E+01 0.  1.
</event>
<event>
 4    1  0.4993983E-021  0.5000050E+01  0.7818608E-02  0.2136455E+00
        -11   -1    0    0    0    0  0.00000000000E+00  0.00000000000E+00  0.50000499739E+01  0.50000500000E+01  0.51100000000E-03 0.  1.
         11   -1    0    0    0    0 -0.00000000000E+00 -0.00000000000E+00 -0.50000499739E+01  0.50000500000E+01  0.51100000000E-03 0. -1.
         50    1    1    2    0    0  0.12087759166E-01 -0.90501996168E-02 -0.16491890893E-01  0.50000500000E+01  0.50000000000E+01 0.  0.
         50    1    1    2    0    0 -0.12087759166E-01  0.90501996168E-02  0.16491890893E-01  0.50000500000E+01  0.50000000000E+01 0.  0.
</event>
<event>
 4    1  0.4993983E-021  0.5000050E+01  0.7818608E-02  0.2136455E+00
        -11   -1    0    0    0    0  0.00000000000E+00  0.00000000000E+00  0.50000499739E+01  0.50000500000E+01  0.51100000000E-03 0.  1.
         11   -1    0    0    0    0 -0.00000000000E+00 -0.00000000000E+00 -0.50000499739E+01  0.50000500000E+01  0.51100000000E-03 0. -1.
         50    1    1    2    0    0 -0.20454929166E-01 -0.37812187203E-02  0.82037039068E-02  0.50000500000E+01  0.50000000000E+01 0.  1.
         50    1    1    2    0    0  0.20454929166E-01  0.37812187203E-02 -0.82037039068E-02  0.50000500000E+01  0.50000000000E+01 0. -1.
</event>
<event>
 4    1  0.4993983E-021  0.5000050E+01  0.7818608E-02  0.2136455E+00
        -11   -1    0    0    0    0  0.00000000000E+00  0.00000000000E+00  0.50000499739E+01  0.50000500000E+01  0.51100000000E-03 0.  1.
         11   -1    0    0    0    0 -0.00000000000E+00 -0.00000000000E+00 -0.50000499739E+01  0.50000500000E+01  0.51100000000E-03 0. -1.
         50    1    1    2    0    0 -0.14466857127E-01 -0.11109775476E-01  0.12933887032E-01  0.50000500000E+01  0.50000000000E+01 0.  0.
         50    1    1    2    0    0  0.14466857127E-01  0.11109775476E-01 -0.12933887032E-01  0.50000500000E+01  0.50000000000E+01 0.  0.
</event>
<event>
 4    1  0.4993983E-021  0.5000050E+01  0.7818608E-02  0.2136455E+00
        -11   -1    0    0    0    0  0.00000000000E+00  0.00000000000E+00  0.50000499739E+01  0.50000500000E+01  0.51100000000E-03 0.  1.
         11   -1    0    0    0    0 -0.00000000000E+00 -0.00000000000E+00 -0.50000499739E+01  0.50000500000E+01  0.51100000000E-03 0. -1.
         50    1    1    2    0    0 -0.74500578943E-02 -0.11631429821E-02  0.21051038829E-01  0.50000500000E+01  0.50000000000E+01 0.  0.
         50    1    1    2    0    0  0.74500578943E-02  0.11631429821E-02 -0.21051038829E-01  0.50000500000E+01  0.50000000000E+01 0. -1.
</event>
<event>
 4    1  0.4993983E-021  0.5000050E+01  0.7818608E-02  0.2136455E+00
        -11   -1    0    0    0    0  0.00000000000E+00  0.00000000000E+00  0.50000499739E+01  0.50000500000E+01  0.51100000000E-03 0. -1.
         11   -1    0    0    0    0 -0.00000000000E+00 -0.00000000000E+00 -0.50000499739E+01  0.50000500000E+01  0.51100000000E-03 0.  1.
         50    1    1    2    0    0 -0.35992096122E-03  0.19575190758E-01 -0.10802076822E-01  0.50000500000E+01  0.50000000000E+01 0.  1.
         50    1    1    2    0    0  0.35992096122E-03 -0.19575190758E-01  0.10802076822E-01  0.50000500000E+01  0.50000000000E+01 0.  1.
</event>
<event>
 4    1  0.4993983E-021  0.5000050E+01  0.7818608E-02  0.2136455E+00
        -11   -1    0    0    0    0  0.00000000000E+00  0.00000000000E+00  0.50000499739E+01  0.50000500000E+01  0.51100000000E-03 0. -1.
         11   -1    0    0    0    0 -0.00000000000E+00 -0.00000000000E+00 -0.50000499739E+01  0.50000500000E+01  0.51100000000E-03 0.  1.
         50    1    1    2    0    0  0.16501256394E-01  0.14525152514E-01  0.40903522884E-02  0.50000500000E+01  0.50000000000E+01 0. -1.
         50    1    1    2    0    0 -0.16501256394E-01 -0.14525152514E-01 -0.40903522884E-02  0.50000500000E+01  0.50000000000E+01 0.  0.
</event>
<event>
 4    1  0.4993983E-021  0.5000050E+01  0.7818608E-02  0.2136455E+00
        -11   -1    0    0    0    0  0.00000000000E+00  0.00000000000E+00  0.50000499739E+01  0.50000500000E+01  0.51100000000E-03 0. -1.
         11   -1    0    0    0    0 -0.00000000000E+00 -0.00000000000E+00 -0.50000499739E+01  0.50000500000E+01  0.51100000000E-03 0.  1.
         50    1    1    2    0    0  0.54777834570E-02 -0.93170723427E-03 -0.21659370028E-01  0.50000500000E+01  0.50000000000E+01 0.  1.
         50    1    1    2    0    0 -0.54777834570E-02  0.93170723427E-03  0.21659370028E-01  0.50000500000E+01  0.50000000000E+01 0.  0.
</event>
<event>
 4    1  0.4993983E-021  0.5000050E+01  0.7818608E-02  0.2136455E+00
        -11   -1    0    0    0    0  0.00000000000E+00  0.00000000000E+00  0.50000499739E+01  0.50000500000E+01  0.51100000000E-03 0.  1.
         11   -1    0    0    0    0 -0.00000000000E+00 -0.00000000000E+00 -0.50000499739E+01  0.50000500000E+01  0.51100000000E-03 0. -1.
         50    1    1    2    0    0 -0.13522310818E-02 -0.14537421287E-01 -0.16936273304E-01  0.50000500000E+01  0.50000000000E+01 0. -1.
         50    1    1    2    0    0  0.13522310818E-02  0.14537421287E-01  0.16936273304E-01  0.50000500000E+01  0.50000000000E+01 0.  1.
</event>
<event>
 4    1  0.4993983E-021  0.5000050E+01  0.7818608E-02  0.2136455E+00
        -11   -1    0    0    0    0  0.00000000000E+00  0.00000000000E+00  0.50000499739E+01  0.50000500000E+01  0.51100000000E-03 0.  1.
         11   -1    0    0    0    0 -0.00000000000E+00 -0.00000000000E+00 -0.50000499739E+01  0.50000500000E+01  0.51100000000E-03 0. -1.
         50    1    1    2    0    0  0.15839375244E-01 -0.13565255574E-01 -0.80684901365E-02  0.50000500000E+01  0.50000000000E+01 0. -1.
         50    1    1    2    0    0 -0.15839375244E-01  0.13565255574E-01  0.80684901365E-02  0.50000500000E+01  0.50000000000E+01 0.  1.
</event>
<event>
 4    1  0.4993983E-021  0.5000050E+01  0.7818608E-02  0.2136455E+00
        -11   -1    0    0    0    0  0.00000000000E+00  0.00000000000E+00  0.50000499739E+01  0.50000500000E+01  0.51100000000E-03 0. -1.
         11   -1    0    0    0    0 -0.00000000000E+00 -0.00000000000E+00 -0.50000499739E+01  0.50000500000E+01  0.51100000000E-03 0.  1.
         50    1    1    2    0    0  0.23052305390E-02  0.33893528155E-02  0.21981826577E-01  0.50000500000E+01  0.50000000000E+01 0. -1.
         50    1    1    2    0    0 -0.23052305390E-02 -0.33893528155E-02 -0.21981826577E-01  0.50000500000E+01  0.50000000000E+01 0.  0.
</event>
<event>
 4    1  0.4993983E-021  0.5000050E+01  0.7818608E-02  0.2136455E+00
        -11   -1    0    0    0    0  0.00000000000E+00  0.00000000000E+00  0.50000499739E+01  0.50000500000E+01  0.51100000000E-03 0.  1.
         11   -1    0    0    0    0 -0.00000000000E+00 -0.00000000000E+00 -0.50000499739E+01  0.50000500000E+01  0.51100000000E-03 0. -1.
         50    1    1    2    0    0  0.63306934955E-02 -0.10889549033E-01 -0.18475457822E-01  0.50000500000E+01  0.50000000000E+01 0. -1.
         50    1    1    2    0    0 -0.63306934955E-02  0.10889549033E-01  0.18475457822E-01  0.50000500000E+01  0.50000000000E+01 0. -1.
</event>
<event>
 4    1  0.4993983E-021  0.5000050E+01  0.7818608E-02  0.2136455E+00
        -11   -1    0    0    0    0  0.00000000000E+00  0.00000000000E+00  0.50000499739E+01  0.50000500000E+01  0.51100000000E-03 0.  1.
         11   -1    0    0    0    0 -0.00000000000E+00 -0.00000000000E+00 -0.50000499739E+01  0.50000500000E+01  0.51100000000E-03 0. -1.
         50    1    1    2    0    0  0.17636174829E-02 -0.19313008968E-01 -0.11131030410E-01  0.50000500000E+01  0.50000000000E+01 0. -1.
         50    1    1    2    0    0 -0.17636174829E-02  0.19313008968E-01  0.11131030410E-01  0.50000500000E+01  0.50000000000E+01 0.  1.
</event>
<event>
 4    1  0.4993983E-021  0.5000050E+01  0.7818608E-02  0.2136455E+00
        -11   -1    0    0    0    0  0.00000000000E+00  0.00000000000E+00  0.50000499739E+01  0.50000500000E+01  0.51100000000E-03 0.  1.
         11   -1    0    0    0    0 -0.00000000000E+00 -0.00000000000E+00 -0.50000499739E+01  0.50000500000E+01  0.51100000000E-03 0. -1.
         50    1    1    2    0    0  0.13368564043E-01 -0.17831548532E-01  0.18220516905E-02  0.50000500000E+01  0.50000000000E+01 0. -1.
         50    1    1    2    0    0 -0.13368564043E-01  0.17831548532E-01 -0.18220516905E-02  0.50000500000E+01  0.50000000000E+01 0.  1.
</event>
<event>
 4    1  0.4993983E-021  0.5000050E+01  0.7818608E-02  0.2136455E+00
        -11   -1    0    0    0    0  0.00000000000E+00  0.00000000000E+00  0.50000499739E+01  0.50000500000E+01  0.51100000000E-03 0. -1.
         11   -1    0    0    0    0 -0.00000000000E+00 -0.00000000000E+00 -0.50000499739E+01  0.50000500000E+01  0.51100000000E-03 0.  1.
         50    1    1    2    0    0 -0.51278822701E-02 -0.19600713267E-03 -0.21763935872E-01  0.50000500000E+01  0.50000000000E+01 0.  1.
         50    1    1    2    0    0  0.51278822701E-02  0.19600713267E-03  0.21763935872E-01  0.50000500000E+01  0.50000000000E+01 0.  0.
</event>
<event>
 4    1  0.4993983E-021  0.5000050E+01  0.7818608E-02  0.2136455E+00
        -11   -1    0    0    0    0  0.00000000000E+00  0.00000000000E+00  0.50000499739E+01  0.50000500000E+01  0.51100000000E-03 0. -1.
         11   -1    0    0    0    0 -0.00000000000E+00 -0.00000000000E+00 -0.50000499739E+01  0.50000500000E+01  0.51100000000E-03 0.  1.
         50    1    1    2    0    0  0.21782699391E-01 -0.12885439708E-02 -0.48842769866E-02  0.50000500000E+01  0.50000000000E+01 0.  0.
         50    1    1    2    0    0 -0.21782699391E-01  0.12885439708E-02  0.48842769866E-02  0.50000500000E+01  0.50000000000E+01 0.  0.
</event>
<event>
 4    1  0.4993983E-021  0.5000050E+01  0.7818608E-02  0.2136455E+00
        -11   -1    0    0    0    0  0.00000000000E+00  0.00000000000E+00  0.50000499739E+01  0.50000500000E+01  0.51100000000E-03 0. -1.
         11   -1    0    0    0    0 -0.00000000000E+00 -0.00000000000E+00 -0.50000499739E+01  0.50000500000E+01  0.51100000000E-03 0.  1.
         50    1    1    2    0    0 -0.11541457538E-01 -0.10501888705E-01 -0.16015854380E-01  0.50000500000E+01  0.50000000000E+01 0. -1.
         50    1    1    2    0    0  0.11541457538E-01  0.10501888705E-01  0.16015854380E-01  0.50000500000E+01  0.50000000000E+01 0. -1.
</event>
<event>
 4    1  0.4993983E-021  0.5000050E+01  0.7818608E-02  0.2136455E+00
        -11   -1    0    0    0    0  0.00000000000E+00  0.00000000000E+00  0.50000499739E+01  0.50000500000E+01  0.51100000000E-03 0. -1.
         11   -1    0    0    0    0 -0.00000000000E+00 -0.00000000000E+00 -0.50000499739E+01  0.50000500000E+01  0.51100000000E-03 0.  1.
         50    1    1    2    0    0 -0.98229704620E-02 -0.94947366555E-02 -0.17702026075E-01  0.50000500000E+01  0.50000000000E+01 0.  1.
         50    1    1    2    0    0  0.98229704620E-02  0.94947366555E-02  0.17702026075E-01  0.50000500000E+01  0.50000000000E+01 0. -1.
</event>
<event>
 4    1  0.4993983E-021  0.5000050E+01  0.7818608E-02  0.2136455E+00
        -11   -1    0    0    0    0  0.00000000000E+00  0.00000000000E+00  0.50000499739E+01  0.50000500000E+01  0.51100000000E-03 0. -1.
         11   -1    0    0    0    0 -0.00000000000E+00 -0.00000000000E+00 -0.50000499739E+01  0.50000500000E+01  0.51100000000E-03 0.  1.
         50    1    1    2    0    0 -0.17868005595E-02  0.97207431590E-02  0.20057841265E-01  0.50000500000E+01  0.50000000000E+01 0.  0.
         50    1    1    2    0    0  0.17868005595E-02 -0.97207431590E-02 -0.20057841265E-01  0.50000500000E+01  0.50000000000E+01 0.  1.
</event>
<event>
 4    1  0.4993983E-021  0.5000050E+01  0.7818608E-02  0.2136455E+00
        -11   -1    0    0    0    0  0.00000000000E+00  0.00000000000E+00  0.50000499739E+01  0.50000500000E+01  0.51100000000E-03 0.  1.
         11   -1    0    0    0    0 -0.00000000000E+00 -0.00000000000E+00 -0.50000499739E+01  0.50000500000E+01  0.51100000000E-03 0. -1.
         50    1    1    2    0    0  0.29374561771E-02 -0.21665063895E-01  0.46902939821E-02  0.50000500000E+01  0.50000000000E+01 0.  0.
         50    1    1    2    0    0 -0.29374561771E-02  0.21665063895E-01 -0.46902939821E-02  0.50000500000E+01  0.50000000000E+01 0.  1.
</event>
<event>
 4    1  0.4993983E-021  0.5000050E+01  0.7818608E-02  0.2136455E+00
        -11   -1    0    0    0    0  0.00000000000E+00  0.00000000000E+00  0.50000499739E+01  0.50000500000E+01  0.51100000000E-03 0.  1.
         11   -1    0    0    0    0 -0.00000000000E+00 -0.00000000000E+00 -0.50000499739E+01  0.50000500000E+01  0.51100000000E-03 0. -1.
         50    1    1    2    0    0  0.19776728118E-02 -0.20395074387E-01  0.89516619128E-02  0.50000500000E+01  0.50000000000E+01 0.  1.
         50    1    1    2    0    0 -0.19776728118E-02  0.20395074387E-01 -0.89516619128E-02  0.50000500000E+01  0.50000000000E+01 0. -1.
</event>
<event>
 4    1  0.4993983E-021  0.5000050E+01  0.7818608E-02  0.2136455E+00
        -11   -1    0    0    0    0  0.00000000000E+00  0.00000000000E+00  0.50000499739E+01  0.50000500000E+01  0.51100000000E-03 0.  1.
         11   -1    0    0    0    0 -0.00000000000E+00 -0.00000000000E+00 -0.50000499739E+01  0.50000500000E+01  0.51100000000E-03 0. -1.
         50    1    1    2    0    0  0.16569847685E-01 -0.12811597121E-01  0.78297909854E-02  0.50000500000E+01  0.50000000000E+01 0.  1.
         50    1    1    2    0    0 -0.16569847685E-01  0.12811597121E-01 -0.78297909854E-02  0.50000500000E+01  0.50000000000E+01 0. -1.
</event>
<event>
 4    1  0.4993983E-021  0.5000050E+01  0.7818608E-02  0.2136455E+00
        -11   -1    0    0    0    0  0.00000000000E+00  0.00000000000E+00  0.50000499739E+01  0.50000500000E+01  0.51100000000E-03 0.  1.
         11   -1    0    0    0    0 -0.00000000000E+00 -0.00000000000E+00 -0.50000499739E+01  0.50000500000E+01  0.51100000000E-03 0. -1.
         50    1    1    2    0    0  0.19756271024E-01  0.10473249701E-01  0.57410345456E-04  0.50000500000E+01  0.50000000000E+01 0.  0.
         50    1    1    2    0    0 -0.19756271024E-01 -0.10473249701E-01 -0.57410345456E-04  0.50000500000E+01  0.50000000000E+01 0.  1.
</event>
<event>
 4    1  0.4993983E-021  0.5000050E+01  0.7818608E-02  0.2136455E+00
        -11   -1    0    0    0    0  0.00000000000E+00  0.00000000000E+00  0.50000499739E+01  0.50000500000E+01  0.51100000000E-03 0.  1.
         11   -1    0    0    0    0 -0.00000000000E+00 -0.00000000000E+00 -0.50000499739E+01  0.50000500000E+01  0.51100000000E-03 0. -1.
         50    1    1    2    0    0 -0.14713729559E-01  0.46407169229E-02 -0.16185561742E-01  0.50000500000E+01  0.50000000000E+01 0.  1.
         50    1    1    2    0    0  0.14713729559E-01 -0.46407169229E-02  0.16185561742E-01  0.50000500000E+01  0.50000000000E+01 0.  0.
</event>
<event>
 4    1  0.4993983E-021  0.5000050E+01  0.7818608E-02  0.2136455E+00
        -11   -1    0    0    0    0  0.00000000000E+00  0.00000000000E+00  0.50000499739E+01  0.50000500000E+01  0.51100000000E-03 0.  1.
         11   -1    0    0    0    0 -0.00000000000E+00 -0.00000000000E+00 -0.50000499739E+01  0.50000500000E+01  0.51100000000E-03 0. -1.
         50    1    1    2    0    0 -0.12507647915E-01 -0.18054794817E-01  0.41935221180E-02  0.50000500000E+01  0.50000000000E+01 0.  0.
         50    1    1    2    0    0  0.12507647915E-01  0.18054794817E-01 -0.41935221180E-02  0.50000500000E+01  0.50000000000E+01 0.  1.
</event>
<event>
 4    1  0.4993983E-021  0.5000050E+01  0.7818608E-02  0.2136455E+00
        -11   -1    0    0    0    0  0.00000000000E+00  0.00000000000E+00  0.50000499739E+01  0.50000500000E+01  0.51100000000E-03 0. -1.
         11   -1    0    0    0    0 -0.00000000000E+00 -0.00000000000E+00 -0.50000499739E+01  0.50000500000E+01  0.51100000000E-03 0.  1.
         50    1    1    2    0    0  0.15318954741E-01  0.33494789255E-02  0.15940925838E-01  0.50000500000E+01  0.50000000000E+01 0.  0.
         50    1    1    2    0    0 -0.15318954741E-01 -0.33494789255E-02 -0.15940925838E-01  0.50000500000E+01  0.50000000000E+01 0. -1.
</event>
<event>
 4    1  0.4993983E-021  0.5000050E+01  0.7818608E-02  0.2136455E+00
        -11   -1    0    0    0    0  0.00000000000E+00  0.00000000000E+00  0.50000499739E+01  0.50000500000E+01  0.51100000000E-03 0.  1.
         11   -1    0    0    0    0 -0.00000000000E+00 -0.00000000000E+00 -0.50000499739E+01  0.50000500000E+01  0.51100000000E-03 0. -1.
         50    1    1    2    0    0  0.60269612657E-02 -0.19340573487E-01  0.94668080726E-02  0.50000500000E+01  0.50000000000E+01 0.  1.
         50    1    1    2    0    0 -0.60269612657E-02  0.19340573487E-01 -0.94668080726E-02  0.50000500000E+01  0.50000000000E+01 0. -1.
</event>
<event>
 4    1  0.4993983E-021  0.5000050E+01  0.7818608E-02  0.2136455E+00
        -11   -1    0    0    0    0  0.00000000000E+00  0.00000000000E+00  0.50000499739E+01  0.50000500000E+01  0.51100000000E-03 0. -1.
         11   -1    0    0    0    0 -0.00000000000E+00 -0.00000000000E+00 -0.50000499739E+01  0.50000500000E+01  0.51100000000E-03 0.  1.
         50    1    1    2    0    0 -0.11788387463E-01  0.75772037947E-02 -0.17424764092E-01  0.50000500000E+01  0.50000000000E+01 0.  1.
         50    1    1    2    0    0  0.11788387463E-01 -0.75772037947E-02  0.17424764092E-01  0.50000500000E+01  0.50000000000E+01 0.  1.
</event>
<event>
 4    1  0.4993983E-021  0.5000050E+01  0.7818608E-02  0.2136455E+00
        -11   -1    0    0    0    0  0.00000000000E+00  0.00000000000E+00  0.50000499739E+01  0.50000500000E+01  0.51100000000E-03 0.  1.
         11   -1    0    0    0    0 -0.00000000000E+00 -0.00000000000E+00 -0.50000499739E+01  0.50000500000E+01  0.51100000000E-03 0. -1.
         50    1    1    2    0    0  0.17689764318E-01  0.13628850345E-01 -0.11528992379E-02  0.50000500000E+01  0.50000000000E+01 0.  0.
         50    1    1    2    0    0 -0.17689764318E-01 -0.13628850345E-01  0.11528992379E-02  0.50000500000E+01  0.50000000000E+01 0.  1.
</event>
<event>
 4    1  0.4993983E-021  0.5000050E+01  0.7818608E-02  0.2136455E+00
        -11   -1    0    0    0    0  0.00000000000E+00  0.00000000000E+00  0.50000499739E+01  0.50000500000E+01  0.51100000000E-03 0. -1.
         11   -1    0    0    0    0 -0.00000000000E+00 -0.00000000000E+00 -0.50000499739E+01  0.50000500000E+01  0.51100000000E-03 0.  1.
         50    1    1    2    0    0 -0.37285061010E-02 -0.61902558278E-02 -0.21160847692E-01  0.50000500000E+01  0.50000000000E+01 0.  0.
         50    1    1    2    0    0  0.37285061010E-02  0.61902558278E-02  0.21160847692E-01  0.50000500000E+01  0.50000000000E+01 0. -1.
</event>
<event>
 4    1  0.4993983E-021  0.5000050E+01  0.7818608E-02  0.2136455E+00
        -11   -1    0    0    0    0  0.00000000000E+00  0.00000000000E+00  0.50000499739E+01  0.50000500000E+01  0.51100000000E-03 0.  1.
         11   -1    0    0    0    0 -0.00000000000E+00 -0.00000000000E+00 -0.50000499739E+01  0.50000500000E+01  0.51100000000E-03 0. -1.
         50    1    1    2    0    0 -0.14602530750E-01 -0.14964064702E-01 -0.79275067509E-02  0.50000500000E+01  0.50000000000E+01 0.  1.
         50    1    1    2    0    0  0.14602530750E-01  0.14964064702E-01  0.79275067509E-02  0.50000500000E+01  0.50000000000E+01 0. -1.
</event>
<event>
 4    1  0.4993983E-021  0.5000050E+01  0.7818608E-02  0.2136455E+00
        -11   -1    0    0    0    0  0.00000000000E+00  0.00000000000E+00  0.50000499739E+01  0.50000500000E+01  0.51100000000E-03 0.  1.
         11   -1    0    0    0    0 -0.00000000000E+00 -0.00000000000E+00 -0.50000499739E+01  0.50000500000E+01  0.51100000000E-03 0. -1.
         50    1    1    2    0    0 -0.63881578049E-02 -0.21235065164E-01  0.28750560580E-02  0.50000500000E+01  0.50000000000E+01 0.  0.
         50    1    1    2    0    0  0.63881578049E-02  0.21235065164E-01 -0.28750560580E-02  0.50000500000E+01  0.50000000000E+01 0.  1.
</event>
<event>
 4    1  0.4993983E-021  0.5000050E+01  0.7818608E-02  0.2136455E+00
        -11   -1    0    0    0    0  0.00000000000E+00  0.00000000000E+00  0.50000499739E+01  0.50000500000E+01  0.51100000000E-03 0.  1.
         11   -1    0    0    0    0 -0.00000000000E+00 -0.00000000000E+00 -0.50000499739E+01  0.50000500000E+01  0.51100000000E-03 0. -1.
         50    1    1    2    0    0 -0.18848018839E-01 -0.69243670069E-02 -0.98390968789E-02  0.50000500000E+01  0.50000000000E+01 0. -1.
         50    1    1    2    0    0  0.18848018839E-01  0.69243670069E-02  0.98390968789E-02  0.50000500000E+01  0.50000000000E+01 0.  1.
</event>
<event>
 4    1  0.4993983E-021  0.5000050E+01  0.7818608E-02  0.2136455E+00
        -11   -1    0    0    0    0  0.00000000000E+00  0.00000000000E+00  0.50000499739E+01  0.50000500000E+01  0.51100000000E-03 0. -1.
         11   -1    0    0    0    0 -0.00000000000E+00 -0.00000000000E+00 -0.50000499739E+01  0.50000500000E+01  0.51100000000E-03 0.  1.
         50    1    1    2    0    0 -0.18163357581E-01 -0.12927580674E-01  0.17241227570E-02  0.50000500000E+01  0.50000000000E+01 0.  1.
         50    1    1    2    0    0  0.18163357581E-01  0.12927580674E-01 -0.17241227570E-02  0.50000500000E+01  0.50000000000E+01 0. -1.
</event>
<event>
 4    1  0.4993983E-021  0.5000050E+01  0.7818608E-02  0.2136455E+00
        -11   -1    0    0    0    0  0.00000000000E+00  0.00000000000E+00  0.50000499739E+01  0.50000500000E+01  0.51100000000E-03 0.  1.
         11   -1    0    0    0    0 -0.00000000000E+00 -0.00000000000E+00 -0.50000499739E+01  0.50000500000E+01  0.51100000000E-03 0. -1.
         50    1    1    2    0    0 -0.17832445717E-01  0.11920289916E-01  0.63176790093E-02  0.50000500000E+01  0.50000000000E+01 0.  1.
         50    1    1    2    0    0  0.17832445717E-01 -0.11920289916E-01 -0.63176790093E-02  0.50000500000E+01  0.50000000000E+01 0. -1.
</event>
<event>
 4    1  0.4993983E-021  0.5000050E+01  0.7818608E-02  0.2136455E+00
        -11   -1    0    0    0    0  0.00000000000E+00  0.00000000000E+00  0.50000499739E+01  0.50000500000E+01  0.51100000000E-03 0. -1.
         11   -1    0    0    0    0 -0.00000000000E+00 -0.00000000000E+00 -0.50000499739E+01  0.50000500000E+01  0.51100000000E-03 0.  1.
         50    1    1    2    0    0  0.18731050110E-01 -0.11914669721E-01 -0.26815866983E-02  0.50000500000E+01  0.50000000000E+01 0. -1.
         50    1    1    2    0    0 -0.18731050110E-01  0.11914669721E-01  0.26815866983E-02  0.50000500000E+01  0.50000000000E+01 0.  1.
</event>
<event>
 4    1  0.4993983E-021  0.5000050E+01  0.7818608E-02  0.2136455E+00
        -11   -1    0    0    0    0  0.00000000000E+00  0.00000000000E+00  0.50000499739E+01  0.50000500000E+01  0.51100000000E-03 0. -1.
         11   -1    0    0    0    0 -0.00000000000E+00 -0.00000000000E+00 -0.50000499739E+01  0.50000500000E+01  0.51100000000E-03 0.  1.
         50    1    1    2    0    0  0.41629700665E-02  0.20330747757E-01 -0.83266365267E-02  0.50000500000E+01  0.50000000000E+01 0.  1.
         50    1    1    2    0    0 -0.41629700665E-02 -0.20330747757E-01  0.83266365267E-02  0.50000500000E+01  0.50000000000E+01 0. -1.
</event>
<event>
 4    1  0.4993983E-021  0.5000050E+01  0.7818608E-02  0.2136455E+00
        -11   -1    0    0    0    0  0.00000000000E+00  0.00000000000E+00  0.50000499739E+01  0.50000500000E+01  0.51100000000E-03 0. -1.
         11   -1    0    0    0    0 -0.00000000000E+00 -0.00000000000E+00 -0.50000499739E+01  0.50000500000E+01  0.51100000000E-03 0.  1.
         50    1    1    2    0    0 -0.59159667136E-02 -0.28887679973E-02 -0.21369577846E-01  0.50000500000E+01  0.50000000000E+01 0.  0.
         50    1    1    2    0    0  0.59159667136E-02  0.28887679973E-02  0.21369577846E-01  0.50000500000E+01  0.50000000000E+01 0. -1.
</event>
<event>
 4    1  0.4993983E-021  0.5000050E+01  0.7818608E-02  0.2136455E+00
        -11   -1    0    0    0    0  0.00000000000E+00  0.00000000000E+00  0.50000499739E+01  0.50000500000E+01  0.51100000000E-03 0. -1.
         11   -1    0    0    0    0 -0.00000000000E+00 -0.00000000000E+00 -0.50000499739E+01  0.50000500000E+01  0.51100000000E-03 0.  1.
         50    1    1    2    0    0 -0.14804401250E-01 -0.15989699386E-01  0.50161456485E-02  0.50000500000E+01  0.50000000000E+01 0.  1.
         50    1    1    2    0    0  0.14804401250E-01  0.15989699386E-01 -0.50161456485E-02  0.50000500000E+01  0.50000000000E+01 0. -1.
</event>
<event>
 4    1  0.4993983E-021  0.5000050E+01  0.7818608E-02  0.2136455E+00
        -11   -1    0    0    0    0  0.00000000000E+00  0.00000000000E+00  0.50000499739E+01  0.50000500000E+01  0.51100000000E-03 0. -1.
         11   -1    0    0    0    0 -0.00000000000E+00 -0.00000000000E+00 -0.50000499739E+01  0.50000500000E+01  0.51100000000E-03 0.  1.
         50    1    1    2    0    0 -0.18092364696E-01  0.10692190310E-01  0.76384491934E-02  0.50000500000E+01  0.50000000000E+01 0.  0.
         50    1    1    2    0    0  0.18092364696E-01 -0.10692190310E-01 -0.76384491934E-02  0.50000500000E+01  0.50000000000E+01 0.  0.
</event>
<event>
 4    1  0.4993983E-021  0.5000050E+01  0.7818608E-02  0.2136455E+00
        -11   -1    0    0    0    0  0.00000000000E+00  0.00000000000E+00  0.50000499739E+01  0.50000500000E+01  0.51100000000E-03 0.  1.
         11   -1    0    0    0    0 -0.00000000000E+00 -0.00000000000E+00 -0.50000499739E+01  0.50000500000E+01  0.51100000000E-03 0. -1.
         50    1    1    2    0    0  0.20103284803E-01  0.85741997586E-02 -0.47268952432E-02  0.50000500000E+01  0.50000000000E+01 0.  0.
         50    1    1    2    0    0 -0.20103284803E-01 -0.85741997586E-02  0.47268952432E-02  0.50000500000E+01  0.50000000000E+01 0. -1.
</event>
<event>
 4    1  0.4993983E-021  0.5000050E+01  0.7818608E-02  0.2136455E+00
        -11   -1    0    0    0    0  0.00000000000E+00  0.00000000000E+00  0.50000499739E+01  0.50000500000E+01  0.51100000000E-03 0.  1.
         11   -1    0    0    0    0 -0.00000000000E+00 -0.00000000000E+00 -0.50000499739E+01  0.50000500000E+01  0.51100000000E-03 0. -1.
         50    1    1    2    0    0  0.24014204458E-02  0.20055728598E-01 -0.95918418591E-02  0.50000500000E+01  0.50000000000E+01 0. -1.
         50    1    1    2    0    0 -0.24014204458E-02 -0.20055728598E-01  0.95918418591E-02  0.50000500000E+01  0.50000000000E+01 0.  1.
</event>
<event>
 4    1  0.4993983E-021  0.5000050E+01  0.7818608E-02  0.2136455E+00
        -11   -1    0    0    0    0  0.00000000000E+00  0.00000000000E+00  0.50000499739E+01  0.50000500000E+01  0.51100000000E-03 0.  1.
         11   -1    0    0    0    0 -0.00000000000E+00 -0.00000000000E+00 -0.50000499739E+01  0.50000500000E+01  0.51100000000E-03 0. -1.
         50    1    1    2    0    0  0.48762864720E-02  0.19178378030E-01  0.10412211407E-01  0.50000500000E+01  0.50000000000E+01 0.  1.
         50    1    1    2    0    0 -0.48762864720E-02 -0.19178378030E-01 -0.10412211407E-01  0.50000500000E+01  0.50000000000E+01 0. -1.
</event>
<event>
 4    1  0.4993983E-021  0.5000050E+01  0.7818608E-02  0.2136455E+00
        -11   -1    0    0    0    0  0.00000000000E+00  0.00000000000E+00  0.50000499739E+01  0.50000500000E+01  0.51100000000E-03 0. -1.
         11   -1    0    0    0    0 -0.00000000000E+00 -0.00000000000E+00 -0.50000499739E+01  0.50000500000E+01  0.51100000000E-03 0.  1.
         50    1    1    2    0    0 -0.15934897477E-01  0.14402949217E-01 -0.62158343172E-02  0.50000500000E+01  0.50000000000E+01 0.  1.
         50    1    1    2    0    0  0.15934897477E-01 -0.14402949217E-01  0.62158343172E-02  0.50000500000E+01  0.50000000000E+01 0.  0.
</event>
<event>
 4    1  0.4993983E-021  0.5000050E+01  0.7818608E-02  0.2136455E+00
        -11   -1    0    0    0    0  0.00000000000E+00  0.00000000000E+00  0.50000499739E+01  0.50000500000E+01  0.51100000000E-03 0.  1.
         11   -1    0    0    0    0 -0.00000000000E+00 -0.00000000000E+00 -0.50000499739E+01  0.50000500000E+01  0.51100000000E-03 0. -1.
         50    1    1    2    0    0  0.14675902039E-01  0.14949298637E-01 -0.78191348358E-02  0.50000500000E+01  0.50000000000E+01 0.  1.
         50    1    1    2    0    0 -0.14675902039E-01 -0.14949298637E-01  0.78191348358E-02  0.50000500000E+01  0.50000000000E+01 0.  0.
</event>
<event>
 4    1  0.4993983E-021  0.5000050E+01  0.7818608E-02  0.2136455E+00
        -11   -1    0    0    0    0  0.00000000000E+00  0.00000000000E+00  0.50000499739E+01  0.50000500000E+01  0.51100000000E-03 0.  1.
         11   -1    0    0    0    0 -0.00000000000E+00 -0.00000000000E+00 -0.50000499739E+01  0.50000500000E+01  0.51100000000E-03 0. -1.
         50    1    1    2    0    0  0.75879697065E-02  0.16237206644E-01 -0.13370801627E-01  0.50000500000E+01  0.50000000000E+01 0. -1.
         50    1    1    2    0    0 -0.75879697065E-02 -0.16237206644E-01  0.13370801627E-01  0.50000500000E+01  0.50000000000E+01 0.  1.
</event>
<event>
 4    1  0.4993983E-021  0.5000050E+01  0.7818608E-02  0.2136455E+00
        -11   -1    0    0    0    0  0.00000000000E+00  0.00000000000E+00  0.50000499739E+01  0.50000500000E+01  0.51100000000E-03 0. -1.
         11   -1    0    0    0    0 -0.00000000000E+00 -0.00000000000E+00 -0.50000499739E+01  0.50000500000E+01  0.51100000000E-03 0.  1.
         50    1    1    2    0    0 -0.17159585076E-01 -0.10259791834E-01  0.10014380237E-01  0.50000500000E+01  0.50000000000E+01 0. -1.
         50    1    1    2    0    0  0.17159585076E-01  0.10259791834E-01 -0.10014380237E-01  0.50000500000E+01  0.50000000000E+01 0.  1.
</event>
<event>
 4    1  0.4993983E-021  0.5000050E+01  0.7818608E-02  0.2136455E+00
        -11   -1    0    0    0    0  0.00000000000E+00  0.00000000000E+00  0.50000499739E+01  0.50000500000E+01  0.51100000000E-03 0. -1.
         11   -1    0    0    0    0 -0.00000000000E+00 -0.00000000000E+00 -0.50000499739E+01  0.50000500000E+01  0.51100000000E-03 0.  1.
         50    1    1    2    0    0  0.13914049000E-01 -0.15514478484E-01  0.81057200664E-02  0.50000500000E+01  0.50000000000E+01 0. -1.
         50    1    1    2    0    0 -0.13914049000E-01  0.15514478484E-01 -0.81057200664E-02  0.50000500000E+01  0.50000000000E+01 0.  1.
</event>
<event>
 4    1  0.4993983E-021  0.5000050E+01  0.7818608E-02  0.2136455E+00
        -11   -1    0    0    0    0  0.00000000000E+00  0.00000000000E+00  0.50000499739E+01  0.50000500000E+01  0.51100000000E-03 0. -1.
         11   -1    0    0    0    0 -0.00000000000E+00 -0.00000000000E+00 -0.50000499739E+01  0.50000500000E+01  0.51100000000E-03 0.  1.
         50    1    1    2    0    0 -0.12264120420E-01 -0.12742063251E-01 -0.13683335647E-01  0.50000500000E+01  0.50000000000E+01 0.  1.
         50    1    1    2    0    0  0.12264120420E-01  0.12742063251E-01  0.13683335647E-01  0.50000500000E+01  0.50000000000E+01 0. -1.
</event>
<event>
 4    1  0.4993983E-021  0.5000050E+01  0.7818608E-02  0.2136455E+00
        -11   -1    0    0    0    0  0.00000000000E+00  0.00000000000E+00  0.50000499739E+01  0.50000500000E+01  0.51100000000E-03 0. -1.
         11   -1    0    0    0    0 -0.00000000000E+00 -0.00000000000E+00 -0.50000499739E+01  0.50000500000E+01  0.51100000000E-03 0.  1.
         50    1    1    2    0    0  0.92144631599E-02 -0.37189094609E-02  0.20031622029E-01  0.50000500000E+01  0.50000000000E+01 0.  0.
         50    1    1    2    0    0 -0.92144631599E-02  0.37189094609E-02 -0.20031622029E-01  0.50000500000E+01  0.50000000000E+01 0.  1.
</event>
<event>
 4    1  0.4993983E-021  0.5000050E+01  0.7818608E-02  0.2136455E+00
        -11   -1    0    0    0    0  0.00000000000E+00  0.00000000000E+00  0.50000499739E+01  0.50000500000E+01  0.51100000000E-03 0. -1.
         11   -1    0    0    0    0 -0.00000000000E+00 -0.00000000000E+00 -0.50000499739E+01  0.50000500000E+01  0.51100000000E-03 0.  1.
         50    1    1    2    0    0  0.10535478441E-01 -0.82448585318E-02  0.17917268257E-01  0.50000500000E+01  0.50000000000E+01 0. -1.
         50    1    1    2    0    0 -0.10535478441E-01  0.82448585318E-02 -0.17917268257E-01  0.50000500000E+01  0.50000000000E+01 0.  1.
</event>
<event>
 4    1  0.4993983E-021  0.5000050E+01  0.7818608E-02  0.2136455E+00
        -11   -1    0    0    0    0  0.00000000000E+00  0.00000000000E+00  0.50000499739E+01  0.50000500000E+01  0.51100000000E-03 0.  1.
         11   -1    0    0    0    0 -0.00000000000E+00 -0.00000000000E+00 -0.50000499739E+01  0.50000500000E+01  0.51100000000E-03 0. -1.
         50    1    1    2    0    0 -0.32175064974E-02 -0.17966464810E-01 -0.12917286641E-01  0.50000500000E+01  0.50000000000E+01 0.  0.
         50    1    1    2    0    0  0.32175064974E-02  0.17966464810E-01  0.12917286641E-01  0.50000500000E+01  0.50000000000E+01 0.  0.
</event>
<event>
 4    1  0.4993983E-021  0.5000050E+01  0.7818608E-02  0.2136455E+00
        -11   -1    0    0    0    0  0.00000000000E+00  0.00000000000E+00  0.50000499739E+01  0.50000500000E+01  0.51100000000E-03 0. -1.
         11   -1    0    0    0    0 -0.00000000000E+00 -0.00000000000E+00 -0.50000499739E+01  0.50000500000E+01  0.51100000000E-03 0.  1.
         50    1    1    2    0    0 -0.12910124093E-01 -0.56708225231E-03 -0.18248551001E-01  0.50000500000E+01  0.50000000000E+01 0.  1.
         50    1    1    2    0    0  0.12910124093E-01  0.56708225231E-03  0.18248551001E-01  0.50000500000E+01  0.50000000000E+01 0. -1.
</event>
<event>
 4    1  0.4993983E-021  0.5000050E+01  0.7818608E-02  0.2136455E+00
        -11   -1    0    0    0    0  0.00000000000E+00  0.00000000000E+00  0.50000499739E+01  0.50000500000E+01  0.51100000000E-03 0. -1.
         11   -1    0    0    0    0 -0.00000000000E+00 -0.00000000000E+00 -0.50000499739E+01  0.50000500000E+01  0.51100000000E-03 0.  1.
         50    1    1    2    0    0 -0.39574704010E-02 -0.18170568139E-01 -0.12416576884E-01  0.50000500000E+01  0.50000000000E+01 0.  1.
         50    1    1    2    0    0  0.39574704010E-02  0.18170568139E-01  0.12416576884E-01  0.50000500000E+01  0.50000000000E+01 0. -1.
</event>
<event>
 4    1  0.4993983E-021  0.5000050E+01  0.7818608E-02  0.2136455E+00
        -11   -1    0    0    0    0  0.00000000000E+00  0.00000000000E+00  0.50000499739E+01  0.50000500000E+01  0.51100000000E-03 0. -1.
         11   -1    0    0    0    0 -0.00000000000E+00 -0.00000000000E+00 -0.50000499739E+01  0.50000500000E+01  0.51100000000E-03 0.  1.
         50    1    1    2    0    0  0.20136466934E-01  0.87305118442E-02  0.42782429065E-02  0.50000500000E+01  0.50000000000E+01 0.  1.
         50    1    1    2    0    0 -0.20136466934E-01 -0.87305118442E-02 -0.42782429065E-02  0.50000500000E+01  0.50000000000E+01 0.  0.
</event>
<event>
 4    1  0.4993983E-021  0.5000050E+01  0.7818608E-02  0.2136455E+00
        -11   -1    0    0    0    0  0.00000000000E+00  0.00000000000E+00  0.50000499739E+01  0.50000500000E+01  0.51100000000E-03 0. -1.
         11   -1    0    0    0    0 -0.00000000000E+00 -0.00000000000E+00 -0.50000499739E+01  0.50000500000E+01  0.51100000000E-03 0.  1.
         50    1    1    2    0    0  0.38582926429E-02 -0.48604788030E-02  0.21482360757E-01  0.50000500000E+01  0.50000000000E+01 0.  0.
         50    1    1    2    0    0 -0.38582926429E-02  0.48604788030E-02 -0.21482360757E-01  0.50000500000E+01  0.50000000000E+01 0.  1.
</event>
<event>
 4    1  0.4993983E-021  0.5000050E+01  0.7818608E-02  0.2136455E+00
        -11   -1    0    0    0    0  0.00000000000E+00  0.00000000000E+00  0.50000499739E+01  0.50000500000E+01  0.51100000000E-03 0.  1.
         11   -1    0    0    0    0 -0.00000000000E+00 -0.00000000000E+00 -0.50000499739E+01  0.50000500000E+01  0.51100000000E-03 0. -1.
         50    1    1    2    0    0 -0.18992790830E-01  0.11588105162E-01 -0.22343265772E-02  0.50000500000E+01  0.50000000000E+01 0.  1.
         50    1    1    2    0    0  0.18992790830E-01 -0.11588105162E-01  0.22343265772E-02  0.50000500000E+01  0.50000000000E+01 0.  0.
</event>
<event>
 4    1  0.4993983E-021  0.5000050E+01  0.7818608E-02  0.2136455E+00
        -11   -1    0    0    0    0  0.00000000000E+00  0.00000000000E+00  0.50000499739E+01  0.50000500000E+01  0.51100000000E-03 0.  1.
         11   -1    0    0    0    0 -0.00000000000E+00 -0.00000000000E+00 -0.50000499739E+01  0.50000500000E+01  0.51100000000E-03 0. -1.
         50    1    1    2    0    0  0.22694580351E-02  0.21919238020E-01  0.37946099740E-02  0.50000500000E+01  0.50000000000E+01 0.  1.
         50    1    1    2    0    0 -0.22694580351E-02 -0.21919238020E-01 -0.37946099740E-02  0.50000500000E+01  0.50000000000E+01 0. -1.
</event>
<event>
 4    1  0.4993983E-021  0.5000050E+01  0.7818608E-02  0.2136455E+00
        -11   -1    0    0    0    0  0.00000000000E+00  0.00000000000E+00  0.50000499739E+01  0.50000500000E+01  0.51100000000E-03 0.  1.
         11   -1    0    0    0    0 -0.00000000000E+00 -0.00000000000E+00 -0.50000499739E+01  0.50000500000E+01  0.51100000000E-03 0. -1.
         50    1    1    2    0    0  0.22410676483E-02  0.55950800560E-02 -0.21533118561E-01  0.50000500000E+01  0.50000000000E+01 0.  0.
         50    1    1    2    0    0 -0.22410676483E-02 -0.55950800560E-02  0.21533118561E-01  0.50000500000E+01  0.50000000000E+01 0.  1.
</event>
<event>
 4    1  0.4993983E-021  0.5000050E+01  0.7818608E-02  0.2136455E+00
        -11   -1    0    0    0    0  0.00000000000E+00  0.00000000000E+00  0.50000499739E+01  0.50000500000E+01  0.51100000000E-03 0. -1.
         11   -1    0    0    0    0 -0.00000000000E+00 -0.00000000000E+00 -0.50000499739E+01  0.50000500000E+01  0.51100000000E-03 0.  1.
         50    1    1    2    0    0 -0.20875917578E-01 -0.80012950243E-02 -0.42171460237E-03  0.50000500000E+01  0.50000000000E+01 0.  0.
         50    1    1    2    0    0  0.20875917578E-01  0.80012950243E-02  0.42171460237E-03  0.50000500000E+01  0.50000000000E+01 0.  1.
</event>
<event>
 4    1  0.4993983E-021  0.5000050E+01  0.7818608E-02  0.2136455E+00
        -11   -1    0    0    0    0  0.00000000000E+00  0.00000000000E+00  0.50000499739E+01  0.50000500000E+01  0.51100000000E-03 0. -1.
         11   -1    0    0    0    0 -0.00000000000E+00 -0.00000000000E+00 -0.50000499739E+01  0.50000500000E+01  0.51100000000E-03 0.  1.
         50    1    1    2    0    0  0.21149085554E-01  0.47609988382E-02 -0.54819312556E-02  0.50000500000E+01  0.50000000000E+01 0.  0.
         50    1    1    2    0    0 -0.21149085554E-01 -0.47609988382E-02  0.54819312556E-02  0.50000500000E+01  0.50000000000E+01 0.  1.
</event>
<event>
 4    1  0.4993983E-021  0.5000050E+01  0.7818608E-02  0.2136455E+00
        -11   -1    0    0    0    0  0.00000000000E+00  0.00000000000E+00  0.50000499739E+01  0.50000500000E+01  0.51100000000E-03 0.  1.
         11   -1    0    0    0    0 -0.00000000000E+00 -0.00000000000E+00 -0.50000499739E+01  0.50000500000E+01  0.51100000000E-03 0. -1.
         50    1    1    2    0    0  0.12260566641E-01  0.18659301600E-01 -0.12294183294E-02  0.50000500000E+01  0.50000000000E+01 0.  0.
         50    1    1    2    0    0 -0.12260566641E-01 -0.18659301600E-01  0.12294183294E-02  0.50000500000E+01  0.50000000000E+01 0. -1.
</event>
<event>
 4    1  0.4993983E-021  0.5000050E+01  0.7818608E-02  0.2136455E+00
        -11   -1    0    0    0    0  0.00000000000E+00  0.00000000000E+00  0.50000499739E+01  0.50000500000E+01  0.51100000000E-03 0.  1.
         11   -1    0    0    0    0 -0.00000000000E+00 -0.00000000000E+00 -0.50000499739E+01  0.50000500000E+01  0.51100000000E-03 0. -1.
         50    1    1    2    0    0  0.54575693425E-02  0.19235532142E-01  0.10010581406E-01  0.50000500000E+01  0.50000000000E+01 0. -1.
         50    1    1    2    0    0 -0.54575693425E-02 -0.19235532142E-01 -0.10010581406E-01  0.50000500000E+01  0.50000000000E+01 0.  0.
</event>
<event>
 4    1  0.4993983E-021  0.5000050E+01  0.7818608E-02  0.2136455E+00
        -11   -1    0    0    0    0  0.00000000000E+00  0.00000000000E+00  0.50000499739E+01  0.50000500000E+01  0.51100000000E-03 0.  1.
         11   -1    0    0    0    0 -0.00000000000E+00 -0.00000000000E+00 -0.50000499739E+01  0.50000500000E+01  0.51100000000E-03 0. -1.
         50    1    1    2    0    0  0.28341155507E-03 -0.17392945212E-01 -0.14050182730E-01  0.50000500000E+01  0.50000000000E+01 0.  0.
         50    1    1    2    0    0 -0.28341155507E-03  0.17392945212E-01  0.14050182730E-01  0.50000500000E+01  0.50000000000E+01 0.  0.
</event>
<event>
 4    1  0.4993983E-021  0.5000050E+01  0.7818608E-02  0.2136455E+00
        -11   -1    0    0    0    0  0.00000000000E+00  0.00000000000E+00  0.50000499739E+01  0.50000500000E+01  0.51100000000E-03 0. -1.
         11   -1    0    0    0    0 -0.00000000000E+00 -0.00000000000E+00 -0.50000499739E+01  0.50000500000E+01  0.51100000000E-03 0.  1.
         50    1    1    2    0    0  0.10736524938E-01  0.14231922950E-01  0.13497477594E-01  0.50000500000E+01  0.50000000000E+01 0. -1.
         50    1    1    2    0    0 -0.10736524938E-01 -0.14231922950E-01 -0.13497477594E-01  0.50000500000E+01  0.50000000000E+01 0.  1.
</event>
<event>
 4    1  0.4993983E-021  0.5000050E+01  0.7818608E-02  0.2136455E+00
        -11   -1    0    0    0    0  0.00000000000E+00  0.00000000000E+00  0.50000499739E+01  0.50000500000E+01  0.51100000000E-03 0. -1.
         11   -1    0    0    0    0 -0.00000000000E+00 -0.00000000000E+00 -0.50000499739E+01  0.50000500000E+01  0.51100000000E-03 0.  1.
         50    1    1    2    0    0 -0.16270723950E-01 -0.13325319747E-01 -0.75961763906E-02  0.50000500000E+01  0.50000000000E+01 0.  1.
         50    1    1    2    0    0  0.16270723950E-01  0.13325319747E-01  0.75961763906E-02  0.50000500000E+01  0.50000000000E+01 0. -1.
</event>
<event>
 4    1  0.4993983E-021  0.5000050E+01  0.7818608E-02  0.2136455E+00
        -11   -1    0    0    0    0  0.00000000000E+00  0.00000000000E+00  0.50000499739E+01  0.50000500000E+01  0.51100000000E-03 0.  1.
         11   -1    0    0    0    0 -0.00000000000E+00 -0.00000000000E+00 -0.50000499739E+01  0.50000500000E+01  0.51100000000E-03 0. -1.
         50    1    1    2    0    0  0.10765814471E-01  0.17182922195E-01  0.94258646078E-02  0.50000500000E+01  0.50000000000E+01 0.  0.
         50    1    1    2    0    0 -0.10765814471E-01 -0.17182922195E-01 -0.94258646078E-02  0.50000500000E+01  0.50000000000E+01 0.  1.
</event>
<event>
 4    1  0.4993983E-021  0.5000050E+01  0.7818608E-02  0.2136455E+00
        -11   -1    0    0    0    0  0.00000000000E+00  0.00000000000E+00  0.50000499739E+01  0.50000500000E+01  0.51100000000E-03 0. -1.
         11   -1    0    0    0    0 -0.00000000000E+00 -0.00000000000E+00 -0.50000499739E+01  0.50000500000E+01  0.51100000000E-03 0.  1.
         50    1    1    2    0    0  0.13788074122E-01  0.16886399964E-01  0.49740334012E-02  0.50000500000E+01  0.50000000000E+01 0.  1.
         50    1    1    2    0    0 -0.13788074122E-01 -0.16886399964E-01 -0.49740334012E-02  0.50000500000E+01  0.50000000000E+01 0.  0.
</event>
<event>
 4    1  0.4993983E-021  0.5000050E+01  0.7818608E-02  0.2136455E+00
        -11   -1    0    0    0    0  0.00000000000E+00  0.00000000000E+00  0.50000499739E+01  0.50000500000E+01  0.51100000000E-03 0. -1.
         11   -1    0    0    0    0 -0.00000000000E+00 -0.00000000000E+00 -0.50000499739E+01  0.50000500000E+01  0.51100000000E-03 0.  1.
         50    1    1    2    0    0  0.56291235201E-02  0.20518186272E-01  0.68789171011E-02  0.50000500000E+01  0.50000000000E+01 0.  0.
         50    1    1    2    0    0 -0.56291235201E-02 -0.20518186272E-01 -0.68789171011E-02  0.50000500000E+01  0.50000000000E+01 0. -1.
</event>
<event>
 4    1  0.4993983E-021  0.5000050E+01  0.7818608E-02  0.2136455E+00
        -11   -1    0    0    0    0  0.00000000000E+00  0.00000000000E+00  0.50000499739E+01  0.50000500000E+01  0.51100000000E-03 0.  1.
         11   -1    0    0    0    0 -0.00000000000E+00 -0.00000000000E+00 -0.50000499739E+01  0.50000500000E+01  0.51100000000E-03 0. -1.
         50    1    1    2    0    0  0.11644489964E-01  0.12427079595E-02  0.19048990273E-01  0.50000500000E+01  0.50000000000E+01 0.  1.
         50    1    1    2    0    0 -0.11644489964E-01 -0.12427079595E-02 -0.19048990273E-01  0.50000500000E+01  0.50000000000E+01 0.  0.
</event>
<event>
 4    1  0.4993983E-021  0.5000050E+01  0.7818608E-02  0.2136455E+00
        -11   -1    0    0    0    0  0.00000000000E+00  0.00000000000E+00  0.50000499739E+01  0.50000500000E+01  0.51100000000E-03 0.  1.
         11   -1    0    0    0    0 -0.00000000000E+00 -0.00000000000E+00 -0.50000499739E+01  0.50000500000E+01  0.51100000000E-03 0. -1.
         50    1    1    2    0    0  0.18201761600E-01  0.41892686722E-02  0.12294242663E-01  0.50000500000E+01  0.50000000000E+01 0. -1.
         50    1    1    2    0    0 -0.18201761600E-01 -0.41892686722E-02 -0.12294242663E-01  0.50000500000E+01  0.50000000000E+01 0. -1.
</event>
<event>
 4    1  0.4993983E-021  0.5000050E+01  0.7818608E-02  0.2136455E+00
        -11   -1    0    0    0    0  0.00000000000E+00  0.00000000000E+00  0.50000499739E+01  0.50000500000E+01  0.51100000000E-03 0.  1.
         11   -1    0    0    0    0 -0.00000000000E+00 -0.00000000000E+00 -0.50000499739E+01  0.50000500000E+01  0.51100000000E-03 0. -1.
         50    1    1    2    0    0  0.81388463204E-02  0.72846112604E-02  0.19511435605E-01  0.50000500000E+01  0.50000000000E+01 0.  0.
         50    1    1    2    0    0 -0.81388463204E-02 -0.72846112604E-02 -0.19511435605E-01  0.50000500000E+01  0.50000000000E+01 0. -1.
</event>
<event>
 4    1  0.4993983E-021  0.5000050E+01  0.7818608E-02  0.2136455E+00
        -11   -1    0    0    0    0  0.00000000000E+00  0.00000000000E+00  0.50000499739E+01  0.50000500000E+01  0.51100000000E-03 0.  1.
         11   -1    0    0    0    0 -0.00000000000E+00 -0.00000000000E+00 -0.50000499739E+01  0.50000500000E+01  0.51100000000E-03 0. -1.
         50    1    1    2    0    0  0.14557256733E-01  0.97241815434E-02 -0.13911472593E-01  0.50000500000E+01  0.50000000000E+01 0.  0.
         50    1    1    2    0    0 -0.14557256733E-01 -0.97241815434E-02  0.13911472593E-01  0.50000500000E+01  0.50000000000E+01 0.  1.
</event>
<event>
 4    1  0.4993983E-021  0.5000050E+01  0.7818608E-02  0.2136455E+00
        -11   -1    0    0    0    0  0.00000000000E+00  0.00000000000E+00  0.50000499739E+01  0.50000500000E+01  0.51100000000E-03 0. -1.
         11   -1    0    0    0    0 -0.00000000000E+00 -0.00000000000E+00 -0.50000499739E+01  0.50000500000E+01  0.51100000000E-03 0.  1.
         50    1    1    2    0    0  0.48749820195E-03  0.21302277376E-01  0.67806949571E-02  0.50000500000E+01  0.50000000000E+01 0. -1.
         50    1    1    2    0    0 -0.48749820195E-03 -0.21302277376E-01 -0.67806949571E-02  0.50000500000E+01  0.50000000000E+01 0.  0.
</event>
<event>
 4    1  0.4993983E-021  0.5000050E+01  0.7818608E-02  0.2136455E+00
        -11   -1    0    0    0    0  0.00000000000E+00  0.00000000000E+00  0.50000499739E+01  0.50000500000E+01  0.51100000000E-03 0. -1.
         11   -1    0    0    0    0 -0.00000000000E+00 -0.00000000000E+00 -0.50000499739E+01  0.50000500000E+01  0.51100000000E-03 0.  1.
         50    1    1    2    0    0 -0.72360343740E-02  0.17614290652E-01 -0.11720881851E-01  0.50000500000E+01  0.50000000000E+01 0. -1.
         50    1    1    2    0    0  0.72360343740E-02 -0.17614290652E-01  0.11720881851E-01  0.50000500000E+01  0.50000000000E+01 0.  0.
</event>
<event>
 4    1  0.4993983E-021  0.5000050E+01  0.7818608E-02  0.2136455E+00
        -11   -1    0    0    0    0  0.00000000000E+00  0.00000000000E+00  0.50000499739E+01  0.50000500000E+01  0.51100000000E-03 0. -1.
         11   -1    0    0    0    0 -0.00000000000E+00 -0.00000000000E+00 -0.50000499739E+01  0.50000500000E+01  0.51100000000E-03 0.  1.
         50    1    1    2    0    0 -0.21960482134E-01  0.16902147228E-02  0.38578360040E-02  0.50000500000E+01  0.50000000000E+01 0. -1.
         50    1    1    2    0    0  0.21960482134E-01 -0.16902147228E-02 -0.38578360040E-02  0.50000500000E+01  0.50000000000E+01 0.  1.
</event>
<event>
 4    1  0.4993983E-021  0.5000050E+01  0.7818608E-02  0.2136455E+00
        -11   -1    0    0    0    0  0.00000000000E+00  0.00000000000E+00  0.50000499739E+01  0.50000500000E+01  0.51100000000E-03 0.  1.
         11   -1    0    0    0    0 -0.00000000000E+00 -0.00000000000E+00 -0.50000499739E+01  0.50000500000E+01  0.51100000000E-03 0. -1.
         50    1    1    2    0    0 -0.44488835912E-02  0.21559574941E-01  0.39236033356E-02  0.50000500000E+01  0.50000000000E+01 0.  1.
         50    1    1    2    0    0  0.44488835912E-02 -0.21559574941E-01 -0.39236033356E-02  0.50000500000E+01  0.50000000000E+01 0. -1.
</event>
<event>
 4    1  0.4993983E-021  0.5000050E+01  0.7818608E-02  0.2136455E+00
        -11   -1    0    0    0    0  0.00000000000E+00  0.00000000000E+00  0.50000499739E+01  0.50000500000E+01  0.51100000000E-03 0. -1.
         11   -1    0    0    0    0 -0.00000000000E+00 -0.00000000000E+00 -0.50000499739E+01  0.50000500000E+01  0.51100000000E-03 0.  1.
         50    1    1    2    0    0 -0.15430137538E-01 -0.89311887757E-02  0.13496192893E-01  0.50000500000E+01  0.50000000000E+01 0. -1.
         50    1    1    2    0    0  0.15430137538E-01  0.89311887757E-02 -0.13496192893E-01  0.50000500000E+01  0.50000000000E+01 0.  1.
</event>
<event>
 4    1  0.4993983E-021  0.5000050E+01  0.7818608E-02  0.2136455E+00
        -11   -1    0    0    0    0  0.00000000000E+00  0.00000000000E+00  0.50000499739E+01  0.50000500000E+01  0.51100000000E-03 0.  1.
         11   -1    0    0    0    0 -0.00000000000E+00 -0.00000000000E+00 -0.50000499739E+01  0.50000500000E+01  0.51100000000E-03 0. -1.
         50    1    1    2    0    0  0.99033186970E-02 -0.66258729157E-02  0.18921537646E-01  0.50000500000E+01  0.50000000000E+01 0.  1.
         50    1    1    2    0    0 -0.99033186970E-02  0.66258729157E-02 -0.18921537646E-01  0.50000500000E+01  0.50000000000E+01 0. -1.
</event>
<event>
 4    1  0.4993983E-021  0.5000050E+01  0.7818608E-02  0.2136455E+00
        -11   -1    0    0    0    0  0.00000000000E+00  0.00000000000E+00  0.50000499739E+01  0.50000500000E+01  0.51100000000E-03 0. -1.
         11   -1    0    0    0    0 -0.00000000000E+00 -0.00000000000E+00 -0.50000499739E+01  0.50000500000E+01  0.51100000000E-03 0.  1.
         50    1    1    2    0    0 -0.15939342594E-01  0.13697611064E-01 -0.76364460840E-02  0.50000500000E+01  0.50000000000E+01 0.  1.
         50    1    1    2    0    0  0.15939342594E-01 -0.13697611064E-01  0.76364460840E-02  0.50000500000E+01  0.50000000000E+01 0. -1.
</event>
<event>
 4    1  0.4993983E-021  0.5000050E+01  0.7818608E-02  0.2136455E+00
        -11   -1    0    0    0    0  0.00000000000E+00  0.00000000000E+00  0.50000499739E+01  0.50000500000E+01  0.51100000000E-03 0.  1.
         11   -1    0    0    0    0 -0.00000000000E+00 -0.00000000000E+00 -0.50000499739E+01  0.50000500000E+01  0.51100000000E-03 0. -1.
         50    1    1    2    0    0 -0.20850672402E-01 -0.77785696023E-02 -0.21784892293E-02  0.50000500000E+01  0.50000000000E+01 0.  1.
         50    1    1    2    0    0  0.20850672402E-01  0.77785696023E-02  0.21784892293E-02  0.50000500000E+01  0.50000000000E+01 0.  0.
</event>
<event>
 4    1  0.4993983E-021  0.5000050E+01  0.7818608E-02  0.2136455E+00
        -11   -1    0    0    0    0  0.00000000000E+00  0.00000000000E+00  0.50000499739E+01  0.50000500000E+01  0.51100000000E-03 0. -1.
         11   -1    0    0    0    0 -0.00000000000E+00 -0.00000000000E+00 -0.50000499739E+01  0.50000500000E+01  0.51100000000E-03 0.  1.
         50    1    1    2    0    0  0.93259349069E-02 -0.38417516652E-02 -0.19956712712E-01  0.50000500000E+01  0.50000000000E+01 0.  0.
         50    1    1    2    0    0 -0.93259349069E-02  0.38417516652E-02  0.19956712712E-01  0.50000500000E+01  0.50000000000E+01 0. -1.
</event>
<event>
 4    1  0.4993983E-021  0.5000050E+01  0.7818608E-02  0.2136455E+00
        -11   -1    0    0    0    0  0.00000000000E+00  0.00000000000E+00  0.50000499739E+01  0.50000500000E+01  0.51100000000E-03 0. -1.
         11   -1    0    0    0    0 -0.00000000000E+00 -0.00000000000E+00 -0.50000499739E+01  0.50000500000E+01  0.51100000000E-03 0.  1.
         50    1    1    2    0    0 -0.10800221547E-01  0.11340205892E-01 -0.15961122919E-01  0.50000500000E+01  0.50000000000E+01 0.  0.
         50    1    1    2    0    0  0.10800221547E-01 -0.11340205892E-01  0.15961122919E-01  0.50000500000E+01  0.50000000000E+01 0.  0.
</event>
<event>
 4    1  0.4993983E-021  0.5000050E+01  0.7818608E-02  0.2136455E+00
        -11   -1    0    0    0    0  0.00000000000E+00  0.00000000000E+00  0.50000499739E+01  0.50000500000E+01  0.51100000000E-03 0. -1.
         11   -1    0    0    0    0 -0.00000000000E+00 -0.00000000000E+00 -0.50000499739E+01  0.50000500000E+01  0.51100000000E-03 0.  1.
         50    1    1    2    0    0  0.19823455005E-02 -0.17220468128E-02 -0.22206020830E-01  0.50000500000E+01  0.50000000000E+01 0.  1.
         50    1    1    2    0    0 -0.19823455005E-02  0.17220468128E-02  0.22206020830E-01  0.50000500000E+01  0.50000000000E+01 0.  0.
</event>
<event>
 4    1  0.4993983E-021  0.5000050E+01  0.7818608E-02  0.2136455E+00
        -11   -1    0    0    0    0  0.00000000000E+00  0.00000000000E+00  0.50000499739E+01  0.50000500000E+01  0.51100000000E-03 0. -1.
         11   -1    0    0    0    0 -0.00000000000E+00 -0.00000000000E+00 -0.50000499739E+01  0.50000500000E+01  0.51100000000E-03 0.  1.
         50    1    1    2    0    0 -0.18554285439E-01  0.12474428085E-01  0.36004973209E-03  0.50000500000E+01  0.50000000000E+01 0. -1.
         50    1    1    2    0    0  0.18554285439E-01 -0.12474428085E-01 -0.36004973209E-03  0.50000500000E+01  0.50000000000E+01 0.  1.
</event>
<event>
 4    1  0.4993983E-021  0.5000050E+01  0.7818608E-02  0.2136455E+00
        -11   -1    0    0    0    0  0.00000000000E+00  0.00000000000E+00  0.50000499739E+01  0.50000500000E+01  0.51100000000E-03 0. -1.
         11   -1    0    0    0    0 -0.00000000000E+00 -0.00000000000E+00 -0.50000499739E+01  0.50000500000E+01  0.51100000000E-03 0.  1.
         50    1    1    2    0    0  0.10697066304E-02 -0.20224967716E-01  0.94767562280E-02  0.50000500000E+01  0.50000000000E+01 0. -1.
         50    1    1    2    0    0 -0.10697066304E-02  0.20224967716E-01 -0.94767562280E-02  0.50000500000E+01  0.50000000000E+01 0.  1.
</event>
<event>
 4    1  0.4993983E-021  0.5000050E+01  0.7818608E-02  0.2136455E+00
        -11   -1    0    0    0    0  0.00000000000E+00  0.00000000000E+00  0.50000499739E+01  0.50000500000E+01  0.51100000000E-03 0. -1.
         11   -1    0    0    0    0 -0.00000000000E+00 -0.00000000000E+00 -0.50000499739E+01  0.50000500000E+01  0.51100000000E-03 0.  1.
         50    1    1    2    0    0  0.13591521862E-01 -0.78308723809E-02  0.15935823519E-01  0.50000500000E+01  0.50000000000E+01 0.  1.
         50    1    1    2    0    0 -0.13591521862E-01  0.78308723809E-02 -0.15935823519E-01  0.50000500000E+01  0.50000000000E+01 0. -1.
</event>
<event>
 4    1  0.4993983E-021  0.5000050E+01  0.7818608E-02  0.2136455E+00
        -11   -1    0    0    0    0  0.00000000000E+00  0.00000000000E+00  0.50000499739E+01  0.50000500000E+01  0.51100000000E-03 0.  1.
         11   -1    0    0    0    0 -0.00000000000E+00 -0.00000000000E+00 -0.50000499739E+01  0.50000500000E+01  0.51100000000E-03 0. -1.
         50    1    1    2    0    0 -0.20730896769E-01  0.80006984184E-02 -0.24942421588E-02  0.50000500000E+01  0.50000000000E+01 0. -1.
         50    1    1    2    0    0  0.20730896769E-01 -0.80006984184E-02  0.24942421588E-02  0.50000500000E+01  0.50000000000E+01 0.  0.
</event>
<event>
 4    1  0.4993983E-021  0.5000050E+01  0.7818608E-02  0.2136455E+00
        -11   -1    0    0    0    0  0.00000000000E+00  0.00000000000E+00  0.50000499739E+01  0.50000500000E+01  0.51100000000E-03 0.  1.
         11   -1    0    0    0    0 -0.00000000000E+00 -0.00000000000E+00 -0.50000499739E+01  0.50000500000E+01  0.51100000000E-03 0. -1.
         50    1    1    2    0    0  0.32854911833E-02  0.12023414911E-02 -0.22085344068E-01  0.50000500000E+01  0.50000000000E+01 0.  0.
         50    1    1    2    0    0 -0.32854911833E-02 -0.12023414911E-02  0.22085344068E-01  0.50000500000E+01  0.50000000000E+01 0.  1.
</event>
<event>
 4    1  0.4993983E-021  0.5000050E+01  0.7818608E-02  0.2136455E+00
        -11   -1    0    0    0    0  0.00000000000E+00  0.00000000000E+00  0.50000499739E+01  0.50000500000E+01  0.51100000000E-03 0. -1.
         11   -1    0    0    0    0 -0.00000000000E+00 -0.00000000000E+00 -0.50000499739E+01  0.50000500000E+01  0.51100000000E-03 0.  1.
         50    1    1    2    0    0 -0.14916556575E-01  0.14370866879E-01  0.84247863537E-02  0.50000500000E+01  0.50000000000E+01 0.  1.
         50    1    1    2    0    0  0.14916556575E-01 -0.14370866879E-01 -0.84247863537E-02  0.50000500000E+01  0.50000000000E+01 0.  0.
</event>
<event>
 4    1  0.4993983E-021  0.5000050E+01  0.7818608E-02  0.2136455E+00
        -11   -1    0    0    0    0  0.00000000000E+00  0.00000000000E+00  0.50000499739E+01  0.50000500000E+01  0.51100000000E-03 0. -1.
         11   -1    0    0    0    0 -0.00000000000E+00 -0.00000000000E+00 -0.50000499739E+01  0.50000500000E+01  0.51100000000E-03 0.  1.
         50    1    1    2    0    0 -0.21761411339E-01 -0.51120819189E-02  0.55686171713E-03  0.50000500000E+01  0.50000000000E+01 0. -1.
         50    1    1    2    0    0  0.21761411339E-01  0.51120819189E-02 -0.55686171713E-03  0.50000500000E+01  0.50000000000E+01 0.  1.
</event>
<event>
 4    1  0.4993983E-021  0.5000050E+01  0.7818608E-02  0.2136455E+00
        -11   -1    0    0    0    0  0.00000000000E+00  0.00000000000E+00  0.50000499739E+01  0.50000500000E+01  0.51100000000E-03 0.  1.
         11   -1    0    0    0    0 -0.00000000000E+00 -0.00000000000E+00 -0.50000499739E+01  0.50000500000E+01  0.51100000000E-03 0. -1.
         50    1    1    2    0    0  0.15144604281E-01 -0.14171225000E-01  0.83558268995E-02  0.50000500000E+01  0.50000000000E+01 0. -1.
         50    1    1    2    0    0 -0.15144604281E-01  0.14171225000E-01 -0.83558268995E-02  0.50000500000E+01  0.50000000000E+01 0.  0.
</event>
<event>
 4    1  0.4993983E-021  0.5000050E+01  0.7818608E-02  0.2136455E+00
        -11   -1    0    0    0    0  0.00000000000E+00  0.00000000000E+00  0.50000499739E+01  0.50000500000E+01  0.51100000000E-03 0.  1.
         11   -1    0    0    0    0 -0.00000000000E+00 -0.00000000000E+00 -0.50000499739E+01  0.50000500000E+01  0.51100000000E-03 0. -1.
         50    1    1    2    0    0 -0.66709521974E-02 -0.12829344427E-02 -0.21303872324E-01  0.50000500000E+01  0.50000000000E+01 0.  0.
         50    1    1    2    0    0  0.66709521974E-02  0.12829344427E-02  0.21303872324E-01  0.50000500000E+01  0.50000000000E+01 0.  1.
</event>
<event>
 4    1  0.4993983E-021  0.5000050E+01  0.7818608E-02  0.2136455E+00
        -11   -1    0    0    0    0  0.00000000000E+00  0.00000000000E+00  0.50000499739E+01  0.50000500000E+01  0.51100000000E-03 0. -1.
         11   -1    0    0    0    0 -0.00000000000E+00 -0.00000000000E+00 -0.50000499739E+01  0.50000500000E+01  0.51100000000E-03 0.  1.
         50    1    1    2    0    0 -0.13041517616E-01  0.15495972697E-01  0.94760829695E-02  0.50000500000E+01  0.50000000000E+01 0. -1.
         50    1    1    2    0    0  0.13041517616E-01 -0.15495972697E-01 -0.94760829695E-02  0.50000500000E+01  0.50000000000E+01 0.  1.
</event>
<event>
 4    1  0.4993983E-021  0.5000050E+01  0.7818608E-02  0.2136455E+00
        -11   -1    0    0    0    0  0.00000000000E+00  0.00000000000E+00  0.50000499739E+01  0.50000500000E+01  0.51100000000E-03 0.  1.
         11   -1    0    0    0    0 -0.00000000000E+00 -0.00000000000E+00 -0.50000499739E+01  0.50000500000E+01  0.51100000000E-03 0. -1.
         50    1    1    2    0    0  0.61775049193E-02 -0.20990204973E-01  0.46100139015E-02  0.50000500000E+01  0.50000000000E+01 0.  1.
         50    1    1    2    0    0 -0.61775049193E-02  0.20990204973E-01 -0.46100139015E-02  0.50000500000E+01  0.50000000000E+01 0. -1.
</event>
<event>
 4    1  0.4993983E-021  0.5000050E+01  0.7818608E-02  0.2136455E+00
        -11   -1    0    0    0    0  0.00000000000E+00  0.00000000000E+00  0.50000499739E+01  0.50000500000E+01  0.51100000000E-03 0.  1.
         11   -1    0    0    0    0 -0.00000000000E+00 -0.00000000000E+00 -0.50000499739E+01  0.50000500000E+01  0.51100000000E-03 0. -1.
         50    1    1    2    0    0 -0.57127571979E-02 -0.69294692670E-02  0.20478021410E-01  0.50000500000E+01  0.50000000000E+01 0.  1.
         50    1    1    2    0    0  0.57127571979E-02  0.69294692670E-02 -0.20478021410E-01  0.50000500000E+01  0.50000000000E+01 0. -1.
</event>
<event>
 4    1  0.4993983E-021  0.5000050E+01  0.7818608E-02  0.2136455E+00
        -11   -1    0    0    0    0  0.00000000000E+00  0.00000000000E+00  0.50000499739E+01  0.50000500000E+01  0.51100000000E-03 0.  1.
         11   -1    0    0    0    0 -0.00000000000E+00 -0.00000000000E+00 -0.50000499739E+01  0.50000500000E+01  0.51100000000E-03 0. -1.
         50    1    1    2    0    0 -0.21841193302E-01 -0.44627921818E-02 -0.17459270005E-02  0.50000500000E+01  0.50000000000E+01 0.  0.
         50    1    1    2    0    0  0.21841193302E-01  0.44627921818E-02  0.17459270005E-02  0.50000500000E+01  0.50000000000E+01 0.  1.
</event>
<event>
 4    1  0.4993983E-021  0.5000050E+01  0.7818608E-02  0.2136455E+00
        -11   -1    0    0    0    0  0.00000000000E+00  0.00000000000E+00  0.50000499739E+01  0.50000500000E+01  0.51100000000E-03 0. -1.
         11   -1    0    0    0    0 -0.00000000000E+00 -0.00000000000E+00 -0.50000499739E+01  0.50000500000E+01  0.51100000000E-03 0.  1.
         50    1    1    2    0    0  0.19355177994E-01 -0.85538148861E-03 -0.11164582720E-01  0.50000500000E+01  0.50000000000E+01 0.  1.
         50    1    1    2    0    0 -0.19355177994E-01  0.85538148861E-03  0.11164582720E-01  0.50000500000E+01  0.50000000000E+01 0.  1.
</event>
<event>
 4    1  0.4993983E-021  0.5000050E+01  0.7818608E-02  0.2136455E+00
        -11   -1    0    0    0    0  0.00000000000E+00  0.00000000000E+00  0.50000499739E+01  0.50000500000E+01  0.51100000000E-03 0.  1.
         11   -1    0    0    0    0 -0.00000000000E+00 -0.00000000000E+00 -0.50000499739E+01  0.50000500000E+01  0.51100000000E-03 0. -1.
         50    1    1    2    0    0  0.14809976671E-01 -0.16481319875E-01 -0.30055259433E-02  0.50000500000E+01  0.50000000000E+01 0. -1.
         50    1    1    2    0    0 -0.14809976671E-01  0.16481319875E-01  0.30055259433E-02  0.50000500000E+01  0.50000000000E+01 0.  1.
</event>
<event>
 4    1  0.4993983E-021  0.5000050E+01  0.7818608E-02  0.2136455E+00
        -11   -1    0    0    0    0  0.00000000000E+00  0.00000000000E+00  0.50000499739E+01  0.50000500000E+01  0.51100000000E-03 0.  1.
         11   -1    0    0    0    0 -0.00000000000E+00 -0.00000000000E+00 -0.50000499739E+01  0.50000500000E+01  0.51100000000E-03 0. -1.
         50    1    1    2    0    0 -0.29610637982E-03 -0.30000436896E-02 -0.22156591770E-01  0.50000500000E+01  0.50000000000E+01 0. -1.
         50    1    1    2    0    0  0.29610637982E-03  0.30000436896E-02  0.22156591770E-01  0.50000500000E+01  0.50000000000E+01 0.  0.
</event>
<event>
 4    1  0.4993983E-021  0.5000050E+01  0.7818608E-02  0.2136455E+00
        -11   -1    0    0    0    0  0.00000000000E+00  0.00000000000E+00  0.50000499739E+01  0.50000500000E+01  0.51100000000E-03 0. -1.
         11   -1    0    0    0    0 -0.00000000000E+00 -0.00000000000E+00 -0.50000499739E+01  0.50000500000E+01  0.51100000000E-03 0.  1.
         50    1    1    2    0    0 -0.78800957900E-02 -0.18960382189E-01 -0.88549702188E-02  0.50000500000E+01  0.50000000000E+01 0.  0.
         50    1    1    2    0    0  0.78800957900E-02  0.18960382189E-01  0.88549702188E-02  0.50000500000E+01  0.50000000000E+01 0.  1.
</event>
<event>
 4    1  0.4993983E-021  0.5000050E+01  0.7818608E-02  0.2136455E+00
        -11   -1    0    0    0    0  0.00000000000E+00  0.00000000000E+00  0.50000499739E+01  0.50000500000E+01  0.51100000000E-03 0. -1.
         11   -1    0    0    0    0 -0.00000000000E+00 -0.00000000000E+00 -0.50000499739E+01  0.50000500000E+01  0.51100000000E-03 0.  1.
         50    1    1    2    0    0  0.12867726437E-02  0.17915061589E-01  0.13319057190E-01  0.50000500000E+01  0.50000000000E+01 0.  0.
         50    1    1    2    0    0 -0.12867726437E-02 -0.17915061589E-01 -0.13319057190E-01  0.50000500000E+01  0.50000000000E+01 0.  0.
</event>
<event>
 4    1  0.4993983E-021  0.5000050E+01  0.7818608E-02  0.2136455E+00
        -11   -1    0    0    0    0  0.00000000000E+00  0.00000000000E+00  0.50000499739E+01  0.50000500000E+01  0.51100000000E-03 0.  1.
         11   -1    0    0    0    0 -0.00000000000E+00 -0.00000000000E+00 -0.50000499739E+01  0.50000500000E+01  0.51100000000E-03 0. -1.
         50    1    1    2    0    0  0.77661364219E-02 -0.19055585669E-01  0.87506731110E-02  0.50000500000E+01  0.50000000000E+01 0.  1.
         50    1    1    2    0    0 -0.77661364219E-02  0.19055585669E-01 -0.87506731110E-02  0.50000500000E+01  0.50000000000E+01 0. -1.
</event>
<event>
 4    1  0.4993983E-021  0.5000050E+01  0.7818608E-02  0.2136455E+00
        -11   -1    0    0    0    0  0.00000000000E+00  0.00000000000E+00  0.50000499739E+01  0.50000500000E+01  0.51100000000E-03 0.  1.
         11   -1    0    0    0    0 -0.00000000000E+00 -0.00000000000E+00 -0.50000499739E+01  0.50000500000E+01  0.51100000000E-03 0. -1.
         50    1    1    2    0    0  0.59920185222E-02  0.19393388445E-01 -0.93805489525E-02  0.50000500000E+01  0.50000000000E+01 0.  1.
         50    1    1    2    0    0 -0.59920185222E-02 -0.19393388445E-01  0.93805489525E-02  0.50000500000E+01  0.50000000000E+01 0. -1.
</event>
<event>
 4    1  0.4993983E-021  0.5000050E+01  0.7818608E-02  0.2136455E+00
        -11   -1    0    0    0    0  0.00000000000E+00  0.00000000000E+00  0.50000499739E+01  0.50000500000E+01  0.51100000000E-03 0.  1.
         11   -1    0    0    0    0 -0.00000000000E+00 -0.00000000000E+00 -0.50000499739E+01  0.50000500000E+01  0.51100000000E-03 0. -1.
         50    1    1    2    0    0  0.24339087974E-02 -0.19112492853E-01  0.11348621279E-01  0.50000500000E+01  0.50000000000E+01 0.  1.
         50    1    1    2    0    0 -0.24339087974E-02  0.19112492853E-01 -0.11348621279E-01  0.50000500000E+01  0.50000000000E+01 0. -1.
</event>
<event>
 4    1  0.4993983E-021  0.5000050E+01  0.7818608E-02  0.2136455E+00
        -11   -1    0    0    0    0  0.00000000000E+00  0.00000000000E+00  0.50000499739E+01  0.50000500000E+01  0.51100000000E-03 0.  1.
         11   -1    0    0    0    0 -0.00000000000E+00 -0.00000000000E+00 -0.50000499739E+01  0.50000500000E+01  0.51100000000E-03 0. -1.
         50    1    1    2    0    0 -0.17088503054E-01  0.14364592990E-01 -0.12821979512E-02  0.50000500000E+01  0.50000000000E+01 0.  1.
         50    1    1    2    0    0  0.17088503054E-01 -0.14364592990E-01  0.12821979512E-02  0.50000500000E+01  0.50000000000E+01 0.  0.
</event>
<event>
 4    1  0.4993983E-021  0.5000050E+01  0.7818608E-02  0.2136455E+00
        -11   -1    0    0    0    0  0.00000000000E+00  0.00000000000E+00  0.50000499739E+01  0.50000500000E+01  0.51100000000E-03 0.  1.
         11   -1    0    0    0    0 -0.00000000000E+00 -0.00000000000E+00 -0.50000499739E+01  0.50000500000E+01  0.51100000000E-03 0. -1.
         50    1    1    2    0    0  0.85743983559E-02 -0.10334333807E-01 -0.17879701832E-01  0.50000500000E+01  0.50000000000E+01 0.  0.
         50    1    1    2    0    0 -0.85743983559E-02  0.10334333807E-01  0.17879701832E-01  0.50000500000E+01  0.50000000000E+01 0.  0.
</event>
<event>
 4    1  0.4993983E-021  0.5000050E+01  0.7818608E-02  0.2136455E+00
        -11   -1    0    0    0    0  0.00000000000E+00  0.00000000000E+00  0.50000499739E+01  0.50000500000E+01  0.51100000000E-03 0. -1.
         11   -1    0    0    0    0 -0.00000000000E+00 -0.00000000000E+00 -0.50000499739E+01  0.50000500000E+01  0.51100000000E-03 0.  1.
         50    1    1    2    0    0 -0.18479455788E-01 -0.12281507437E-01 -0.27707018728E-02  0.50000500000E+01  0.50000000000E+01 0. -1.
         50    1    1    2    0    0  0.18479455788E-01  0.12281507437E-01  0.27707018728E-02  0.50000500000E+01  0.50000000000E+01 0.  1.
</event>
<event>
 4    1  0.4993983E-021  0.5000050E+01  0.7818608E-02  0.2136455E+00
        -11   -1    0    0    0    0  0.00000000000E+00  0.00000000000E+00  0.50000499739E+01  0.50000500000E+01  0.51100000000E-03 0. -1.
         11   -1    0    0    0    0 -0.00000000000E+00 -0.00000000000E+00 -0.50000499739E+01  0.50000500000E+01  0.51100000000E-03 0.  1.
         50    1    1    2    0    0 -0.72129457893E-03  0.10854197053E-01 -0.19536341532E-01  0.50000500000E+01  0.50000000000E+01 0.  0.
         50    1    1    2    0    0  0.72129457893E-03 -0.10854197053E-01  0.19536341532E-01  0.50000500000E+01  0.50000000000E+01 0.  0.
</event>
<event>
 4    1  0.4993983E-021  0.5000050E+01  0.7818608E-02  0.2136455E+00
        -11   -1    0    0    0    0  0.00000000000E+00  0.00000000000E+00  0.50000499739E+01  0.50000500000E+01  0.51100000000E-03 0.  1.
         11   -1    0    0    0    0 -0.00000000000E+00 -0.00000000000E+00 -0.50000499739E+01  0.50000500000E+01  0.51100000000E-03 0. -1.
         50    1    1    2    0    0  0.78824090433E-02 -0.19558167523E-01  0.74396378141E-02  0.50000500000E+01  0.50000000000E+01 0.  1.
         50    1    1    2    0    0 -0.78824090433E-02  0.19558167523E-01 -0.74396378141E-02  0.50000500000E+01  0.50000000000E+01 0. -1.
</event>
<event>
 4    1  0.4993983E-021  0.5000050E+01  0.7818608E-02  0.2136455E+00
        -11   -1    0    0    0    0  0.00000000000E+00  0.00000000000E+00  0.50000499739E+01  0.50000500000E+01  0.51100000000E-03 0. -1.
         11   -1    0    0    0    0 -0.00000000000E+00 -0.00000000000E+00 -0.50000499739E+01  0.50000500000E+01  0.51100000000E-03 0.  1.
         50    1    1    2    0    0 -0.11843484620E-01  0.85639028100E-02 -0.16923177618E-01  0.50000500000E+01  0.50000000000E+01 0.  1.
         50    1    1    2    0    0  0.11843484620E-01 -0.85639028100E-02  0.16923177618E-01  0.50000500000E+01  0.50000000000E+01 0. -1.
</event>
<event>
 4    1  0.4993983E-021  0.5000050E+01  0.7818608E-02  0.2136455E+00
        -11   -1    0    0    0    0  0.00000000000E+00  0.00000000000E+00  0.50000499739E+01  0.50000500000E+01  0.51100000000E-03 0. -1.
         11   -1    0    0    0    0 -0.00000000000E+00 -0.00000000000E+00 -0.50000499739E+01  0.50000500000E+01  0.51100000000E-03 0.  1.
         50    1    1    2    0    0 -0.17990637701E-01  0.13266904412E-01 -0.57332574878E-03  0.50000500000E+01  0.50000000000E+01 0.  1.
         50    1    1    2    0    0  0.17990637701E-01 -0.13266904412E-01  0.57332574878E-03  0.50000500000E+01  0.50000000000E+01 0.  0.
</event>
<event>
 4    1  0.4993983E-021  0.5000050E+01  0.7818608E-02  0.2136455E+00
        -11   -1    0    0    0    0  0.00000000000E+00  0.00000000000E+00  0.50000499739E+01  0.50000500000E+01  0.51100000000E-03 0. -1.
         11   -1    0    0    0    0 -0.00000000000E+00 -0.00000000000E+00 -0.50000499739E+01  0.50000500000E+01  0.51100000000E-03 0.  1.
         50    1    1    2    0    0 -0.17324754044E-01  0.75660239486E-02  0.11941971317E-01  0.50000500000E+01  0.50000000000E+01 0.  0.
         50    1    1    2    0    0  0.17324754044E-01 -0.75660239486E-02 -0.11941971317E-01  0.50000500000E+01  0.50000000000E+01 0.  0.
</event>
<event>
 4    1  0.4993983E-021  0.5000050E+01  0.7818608E-02  0.2136455E+00
        -11   -1    0    0    0    0  0.00000000000E+00  0.00000000000E+00  0.50000499739E+01  0.50000500000E+01  0.51100000000E-03 0. -1.
         11   -1    0    0    0    0 -0.00000000000E+00 -0.00000000000E+00 -0.50000499739E+01  0.50000500000E+01  0.51100000000E-03 0.  1.
         50    1    1    2    0    0 -0.20143234279E-01  0.97011495597E-02 -0.37457975084E-03  0.50000500000E+01  0.50000000000E+01 0. -1.
         50    1    1    2    0    0  0.20143234279E-01 -0.97011495597E-02  0.37457975084E-03  0.50000500000E+01  0.50000000000E+01 0.  1.
</event>
<event>
 4    1  0.4993983E-021  0.5000050E+01  0.7818608E-02  0.2136455E+00
        -11   -1    0    0    0    0  0.00000000000E+00  0.00000000000E+00  0.50000499739E+01  0.50000500000E+01  0.51100000000E-03 0.  1.
         11   -1    0    0    0    0 -0.00000000000E+00 -0.00000000000E+00 -0.50000499739E+01  0.50000500000E+01  0.51100000000E-03 0. -1.
         50    1    1    2    0    0  0.16277184762E-01  0.42014399408E-02 -0.14744614564E-01  0.50000500000E+01  0.50000000000E+01 0. -1.
         50    1    1    2    0    0 -0.16277184762E-01 -0.42014399408E-02  0.14744614564E-01  0.50000500000E+01  0.50000000000E+01 0.  1.
</event>
<event>
 4    1  0.4993983E-021  0.5000050E+01  0.7818608E-02  0.2136455E+00
        -11   -1    0    0    0    0  0.00000000000E+00  0.00000000000E+00  0.50000499739E+01  0.50000500000E+01  0.51100000000E-03 0. -1.
         11   -1    0    0    0    0 -0.00000000000E+00 -0.00000000000E+00 -0.50000499739E+01  0.50000500000E+01  0.51100000000E-03 0.  1.
         50    1    1    2    0    0  0.20745181441E-01  0.57721487159E-02 -0.60267940229E-02  0.50000500000E+01  0.50000000000E+01 0.  0.
         50    1    1    2    0    0 -0.20745181441E-01 -0.57721487159E-02  0.60267940229E-02  0.50000500000E+01  0.50000000000E+01 0.  1.
</event>
<event>
 4    1  0.4993983E-021  0.5000050E+01  0.7818608E-02  0.2136455E+00
        -11   -1    0    0    0    0  0.00000000000E+00  0.00000000000E+00  0.50000499739E+01  0.50000500000E+01  0.51100000000E-03 0. -1.
         11   -1    0    0    0    0 -0.00000000000E+00 -0.00000000000E+00 -0.50000499739E+01  0.50000500000E+01  0.51100000000E-03 0.  1.
         50    1    1    2    0    0  0.13465027356E-01 -0.15098041467E-01  0.95260003237E-02  0.50000500000E+01  0.50000000000E+01 0. -1.
         50    1    1    2    0    0 -0.13465027356E-01  0.15098041467E-01 -0.95260003237E-02  0.50000500000E+01  0.50000000000E+01 0.  0.
</event>
