<event>
 4    1  0.4944208E-021  0.5000050E+01  0.7818608E-02  0.2136455E+00
        -11   -1    0    0    0    0  0.00000000000E+00  0.00000000000E+00  0.50000499739E+01  0.50000500000E+01  0.51100000000E-03 0.  1.
         11   -1    0    0    0    0 -0.00000000000E+00 -0.00000000000E+00 -0.50000499739E+01  0.50000500000E+01  0.51100000000E-03 0. -1.
         50    1    1    2    0    0 -0.12131861903E-01  0.12326293307E-01  0.14173317187E-01  0.50000500000E+01  0.50000000000E+01 0.  0.
         50    1    1    2    0    0  0.12131861903E-01 -0.12326293307E-01 -0.14173317187E-01  0.50000500000E+01  0.50000000000E+01 0.  0.
</event>
<event>
 4    1  0.4944208E-021  0.5000050E+01  0.7818608E-02  0.2136455E+00
        -11   -1    0    0    0    0  0.00000000000E+00  0.00000000000E+00  0.50000499739E+01  0.50000500000E+01  0.51100000000E-03 0. -1.
         11   -1    0    0    0    0 -0.00000000000E+00 -0.00000000000E+00 -0.50000499739E+01  0.50000500000E+01  0.51100000000E-03 0.  1.
         50    1    1    2    0    0  0.84045951951E-02  0.43764489835E-02 -0.20253690377E-01  0.50000500000E+01  0.50000000000E+01 0.  1.
         50    1    1    2    0    0 -0.84045951951E-02 -0.43764489835E-02  0.20253690377E-01  0.50000500000E+01  0.50000000000E+01 0. -1.
</event>
<event>
 4    1  0.4944208E-021  0.5000050E+01  0.7818608E-02  0.2136455E+00
        -11   -1    0    0    0    0  0.00000000000E+00  0.00000000000E+00  0.50000499739E+01  0.50000500000E+01  0.51100000000E-03 0. -1.
         11   -1    0    0    0    0 -0.00000000000E+00 -0.00000000000E+00 -0.50000499739E+01  0.50000500000E+01  0.51100000000E-03 0.  1.
         50    1    1    2    0    0 -0.21991402482E-01  0.40472963857E-02 -0.10432551350E-04  0.50000500000E+01  0.50000000000E+01 0. -1.
         50    1    1    2    0    0  0.21991402482E-01 -0.40472963857E-02  0.10432551350E-04  0.50000500000E+01  0.50000000000E+01 0.  0.
</event>
<event>
 4    1  0.4944208E-021  0.5000050E+01  0.7818608E-02  0.2136455E+00
        -11   -1    0    0    0    0  0.00000000000E+00  0.00000000000E+00  0.50000499739E+01  0.50000500000E+01  0.51100000000E-03 0. -1.
         11   -1    0    0    0    0 -0.00000000000E+00 -0.00000000000E+00 -0.50000499739E+01  0.50000500000E+01  0.51100000000E-03 0.  1.
         50    1    1    2    0    0  0.63207928356E-02 -0.15223938297E-01 -0.15108996680E-01  0.50000500000E+01  0.50000000000E+01 0.  0.
         50    1    1    2    0    0 -0.63207928356E-02  0.15223938297E-01  0.15108996680E-01  0.50000500000E+01  0.50000000000E+01 0.  1.
</event>
<event>
 4    1  0.4944208E-021  0.5000050E+01  0.7818608E-02  0.2136455E+00
        -11   -1    0    0    0    0  0.00000000000E+00  0.00000000000E+00  0.50000499739E+01  0.50000500000E+01  0.51100000000E-03 0.  1.
         11   -1    0    0    0    0 -0.00000000000E+00 -0.00000000000E+00 -0.50000499739E+01  0.50000500000E+01  0.51100000000E-03 0. -1.
         50    1    1    2    0    0  0.17039147983E-01  0.13773575429E-01  0.44674999613E-02  0.50000500000E+01  0.50000000000E+01 0.  1.
         50    1    1    2    0    0 -0.17039147983E-01 -0.13773575429E-01 -0.44674999613E-02  0.50000500000E+01  0.50000000000E+01 0. -1.
</event>
<event>
 4    1  0.4944208E-021  0.5000050E+01  0.7818608E-02  0.2136455E+00
        -11   -1    0    0    0    0  0.00000000000E+00  0.00000000000E+00  0.50000499739E+01  0.50000500000E+01  0.51100000000E-03 0. -1.
         11   -1    0    0    0    0 -0.00000000000E+00 -0.00000000000E+00 -0.50000499739E+01  0.50000500000E+01  0.51100000000E-03 0.  1.
         50    1    1    2    0    0 -0.44251758274E-02  0.21870118971E-01  0.14554089126E-02  0.50000500000E+01  0.50000000000E+01 0.  1.
         50    1    1    2    0    0  0.44251758274E-02 -0.21870118971E-01 -0.14554089126E-02  0.50000500000E+01  0.50000000000E+01 0.  0.
</event>
<event>
 4    1  0.4944208E-021  0.5000050E+01  0.7818608E-02  0.2136455E+00
        -11   -1    0    0    0    0  0.00000000000E+00  0.00000000000E+00  0.50000499739E+01  0.50000500000E+01  0.51100000000E-03 0.  1.
         11   -1    0    0    0    0 -0.00000000000E+00 -0.00000000000E+00 -0.50000499739E+01  0.50000500000E+01  0.51100000000E-03 0. -1.
         50    1    1    2    0    0  0.17775949313E-02 -0.20477603974E-01  0.88039986213E-02  0.50000500000E+01  0.50000000000E+01 0.  1.
         50    1    1    2    0    0 -0.17775949313E-02  0.20477603974E-01 -0.88039986213E-02  0.50000500000E+01  0.50000000000E+01 0. -1.
</event>
<event>
 4    1  0.4944208E-021  0.5000050E+01  0.7818608E-02  0.2136455E+00
        -11   -1    0    0    0    0  0.00000000000E+00  0.00000000000E+00  0.50000499739E+01  0.50000500000E+01  0.51100000000E-03 0.  1.
         11   -1    0    0    0    0 -0.00000000000E+00 -0.00000000000E+00 -0.50000499739E+01  0.50000500000E+01  0.51100000000E-03 0. -1.
         50    1    1    2    0    0 -0.15695390834E-01  0.11150465591E-02 -0.15887538442E-01  0.50000500000E+01  0.50000000000E+01 0.  0.
         50    1    1    2    0    0  0.15695390834E-01 -0.11150465591E-02  0.15887538442E-01  0.50000500000E+01  0.50000000000E+01 0.  1.
</event>
<event>
 4    1  0.4944208E-021  0.5000050E+01  0.7818608E-02  0.2136455E+00
        -11   -1    0    0    0    0  0.00000000000E+00  0.00000000000E+00  0.50000499739E+01  0.50000500000E+01  0.51100000000E-03 0.  1.
         11   -1    0    0    0    0 -0.00000000000E+00 -0.00000000000E+00 -0.50000499739E+01  0.50000500000E+01  0.51100000000E-03 0. -1.
         50    1    1    2    0    0  0.19583857498E-01  0.99182059684E-02 -0.42549049175E-02  0.50000500000E+01  0.50000000000E+01 0.  1.
         50    1    1    2    0    0 -0.19583857498E-01 -0.99182059684E-02  0.42549049175E-02  0.50000500000E+01  0.50000000000E+01 0. -1.
</event>
<event>
 4    1  0.4944208E-021  0.5000050E+01  0.7818608E-02  0.2136455E+00
        -11   -1    0    0    0    0  0.00000000000E+00  0.00000000000E+00  0.50000499739E+01  0.50000500000E+01  0.51100000000E-03 0. -1.
         11   -1    0    0    0    0 -0.00000000000E+00 -0.00000000000E+00 -0.50000499739E+01  0.50000500000E+01  0.51100000000E-03 0.  1.
         50    1    1    2    0    0  0.16766556745E-01 -0.12979656430E-01 -0.71002530855E-02  0.50000500000E+01  0.50000000000E+01 0. -1.
         50    1    1    2    0    0 -0.16766556745E-01  0.12979656430E-01  0.71002530855E-02  0.50000500000E+01  0.50000000000E+01 0.  1.
</event>
<event>
 4    1  0.4944208E-021  0.5000050E+01  0.7818608E-02  0.2136455E+00
        -11   -1    0    0    0    0  0.00000000000E+00  0.00000000000E+00  0.50000499739E+01  0.50000500000E+01  0.51100000000E-03 0.  1.
         11   -1    0    0    0    0 -0.00000000000E+00 -0.00000000000E+00 -0.50000499739E+01  0.50000500000E+01  0.51100000000E-03 0. -1.
         50    1    1    2    0    0 -0.74513419155E-02  0.16140721273E-01 -0.13563079313E-01  0.50000500000E+01  0.50000000000E+01 0. -1.
         50    1    1    2    0    0  0.74513419155E-02 -0.16140721273E-01  0.13563079313E-01  0.50000500000E+01  0.50000000000E+01 0.  1.
</event>
<event>
 4    1  0.4944208E-021  0.5000050E+01  0.7818608E-02  0.2136455E+00
        -11   -1    0    0    0    0  0.00000000000E+00  0.00000000000E+00  0.50000499739E+01  0.50000500000E+01  0.51100000000E-03 0. -1.
         11   -1    0    0    0    0 -0.00000000000E+00 -0.00000000000E+00 -0.50000499739E+01  0.50000500000E+01  0.51100000000E-03 0.  1.
         50    1    1    2    0    0  0.16654870229E-01 -0.72371770100E-02 -0.13047646017E-01  0.50000500000E+01  0.50000000000E+01 0. -1.
         50    1    1    2    0    0 -0.16654870229E-01  0.72371770100E-02  0.13047646017E-01  0.50000500000E+01  0.50000000000E+01 0.  0.
</event>
<event>
 4    1  0.4944208E-021  0.5000050E+01  0.7818608E-02  0.2136455E+00
        -11   -1    0    0    0    0  0.00000000000E+00  0.00000000000E+00  0.50000499739E+01  0.50000500000E+01  0.51100000000E-03 0.  1.
         11   -1    0    0    0    0 -0.00000000000E+00 -0.00000000000E+00 -0.50000499739E+01  0.50000500000E+01  0.51100000000E-03 0. -1.
         50    1    1    2    0    0 -0.11764458735E-01  0.71651282266E-02 -0.17614225733E-01  0.50000500000E+01  0.50000000000E+01 0.  0.
         50    1    1    2    0    0  0.11764458735E-01 -0.71651282266E-02  0.17614225733E-01  0.50000500000E+01  0.50000000000E+01 0.  1.
</event>
<event>
 4    1  0.4944208E-021  0.5000050E+01  0.7818608E-02  0.2136455E+00
        -11   -1    0    0    0    0  0.00000000000E+00  0.00000000000E+00  0.50000499739E+01  0.50000500000E+01  0.51100000000E-03 0.  1.
         11   -1    0    0    0    0 -0.00000000000E+00 -0.00000000000E+00 -0.50000499739E+01  0.50000500000E+01  0.51100000000E-03 0. -1.
         50    1    1    2    0    0 -0.27832152580E-02 -0.21271158250E-01  0.63082517012E-02  0.50000500000E+01  0.50000000000E+01 0. -1.
         50    1    1    2    0    0  0.27832152580E-02  0.21271158250E-01 -0.63082517012E-02  0.50000500000E+01  0.50000000000E+01 0.  0.
</event>
<event>
 4    1  0.4944208E-021  0.5000050E+01  0.7818608E-02  0.2136455E+00
        -11   -1    0    0    0    0  0.00000000000E+00  0.00000000000E+00  0.50000499739E+01  0.50000500000E+01  0.51100000000E-03 0.  1.
         11   -1    0    0    0    0 -0.00000000000E+00 -0.00000000000E+00 -0.50000499739E+01  0.50000500000E+01  0.51100000000E-03 0. -1.
         50    1    1    2    0    0  0.17436815759E-01  0.12749486222E-01 -0.57801866110E-02  0.50000500000E+01  0.50000000000E+01 0. -1.
         50    1    1    2    0    0 -0.17436815759E-01 -0.12749486222E-01  0.57801866110E-02  0.50000500000E+01  0.50000000000E+01 0.  1.
</event>
<event>
 4    1  0.4944208E-021  0.5000050E+01  0.7818608E-02  0.2136455E+00
        -11   -1    0    0    0    0  0.00000000000E+00  0.00000000000E+00  0.50000499739E+01  0.50000500000E+01  0.51100000000E-03 0.  1.
         11   -1    0    0    0    0 -0.00000000000E+00 -0.00000000000E+00 -0.50000499739E+01  0.50000500000E+01  0.51100000000E-03 0. -1.
         50    1    1    2    0    0  0.60776587366E-02 -0.20869064426E-01  0.52484963791E-02  0.50000500000E+01  0.50000000000E+01 0.  0.
         50    1    1    2    0    0 -0.60776587366E-02  0.20869064426E-01 -0.52484963791E-02  0.50000500000E+01  0.50000000000E+01 0. -1.
</event>
<event>
 4    1  0.4944208E-021  0.5000050E+01  0.7818608E-02  0.2136455E+00
        -11   -1    0    0    0    0  0.00000000000E+00  0.00000000000E+00  0.50000499739E+01  0.50000500000E+01  0.51100000000E-03 0. -1.
         11   -1    0    0    0    0 -0.00000000000E+00 -0.00000000000E+00 -0.50000499739E+01  0.50000500000E+01  0.51100000000E-03 0.  1.
         50    1    1    2    0    0  0.14534915981E-01  0.12450202571E-01  0.11564219530E-01  0.50000500000E+01  0.50000000000E+01 0.  1.
         50    1    1    2    0    0 -0.14534915981E-01 -0.12450202571E-01 -0.11564219530E-01  0.50000500000E+01  0.50000000000E+01 0.  0.
</event>
<event>
 4    1  0.4944208E-021  0.5000050E+01  0.7818608E-02  0.2136455E+00
        -11   -1    0    0    0    0  0.00000000000E+00  0.00000000000E+00  0.50000499739E+01  0.50000500000E+01  0.51100000000E-03 0.  1.
         11   -1    0    0    0    0 -0.00000000000E+00 -0.00000000000E+00 -0.50000499739E+01  0.50000500000E+01  0.51100000000E-03 0. -1.
         50    1    1    2    0    0 -0.17301583592E-01 -0.11178880958E-01 -0.87000187192E-02  0.50000500000E+01  0.50000000000E+01 0.  1.
         50    1    1    2    0    0  0.17301583592E-01  0.11178880958E-01  0.87000187192E-02  0.50000500000E+01  0.50000000000E+01 0. -1.
</event>
<event>
 4    1  0.4944208E-021  0.5000050E+01  0.7818608E-02  0.2136455E+00
        -11   -1    0    0    0    0  0.00000000000E+00  0.00000000000E+00  0.50000499739E+01  0.50000500000E+01  0.51100000000E-03 0. -1.
         11   -1    0    0    0    0 -0.00000000000E+00 -0.00000000000E+00 -0.50000499739E+01  0.50000500000E+01  0.51100000000E-03 0.  1.
         50    1    1    2    0    0  0.96768513608E-03 -0.20727555140E-01  0.83327392486E-02  0.50000500000E+01  0.50000000000E+01 0.  1.
         50    1    1    2    0    0 -0.96768513608E-03  0.20727555140E-01 -0.83327392486E-02  0.50000500000E+01  0.50000000000E+01 0. -1.
</event>
<event>
 4    1  0.4944208E-021  0.5000050E+01  0.7818608E-02  0.2136455E+00
        -11   -1    0    0    0    0  0.00000000000E+00  0.00000000000E+00  0.50000499739E+01  0.50000500000E+01  0.51100000000E-03 0. -1.
         11   -1    0    0    0    0 -0.00000000000E+00 -0.00000000000E+00 -0.50000499739E+01  0.50000500000E+01  0.51100000000E-03 0.  1.
         50    1    1    2    0    0 -0.33695850664E-02 -0.39475558149E-02  0.21750062059E-01  0.50000500000E+01  0.50000000000E+01 0. -1.
         50    1    1    2    0    0  0.33695850664E-02  0.39475558149E-02 -0.21750062059E-01  0.50000500000E+01  0.50000000000E+01 0.  0.
</event>
<event>
 4    1  0.4944208E-021  0.5000050E+01  0.7818608E-02  0.2136455E+00
        -11   -1    0    0    0    0  0.00000000000E+00  0.00000000000E+00  0.50000499739E+01  0.50000500000E+01  0.51100000000E-03 0. -1.
         11   -1    0    0    0    0 -0.00000000000E+00 -0.00000000000E+00 -0.50000499739E+01  0.50000500000E+01  0.51100000000E-03 0.  1.
         50    1    1    2    0    0  0.21736152459E-01 -0.34014399722E-02 -0.39965463101E-02  0.50000500000E+01  0.50000000000E+01 0. -1.
         50    1    1    2    0    0 -0.21736152459E-01  0.34014399722E-02  0.39965463101E-02  0.50000500000E+01  0.50000000000E+01 0.  1.
</event>
<event>
 4    1  0.4944208E-021  0.5000050E+01  0.7818608E-02  0.2136455E+00
        -11   -1    0    0    0    0  0.00000000000E+00  0.00000000000E+00  0.50000499739E+01  0.50000500000E+01  0.51100000000E-03 0.  1.
         11   -1    0    0    0    0 -0.00000000000E+00 -0.00000000000E+00 -0.50000499739E+01  0.50000500000E+01  0.51100000000E-03 0. -1.
         50    1    1    2    0    0  0.12629510195E-01  0.17554650756E-01 -0.56861418428E-02  0.50000500000E+01  0.50000000000E+01 0.  1.
         50    1    1    2    0    0 -0.12629510195E-01 -0.17554650756E-01  0.56861418428E-02  0.50000500000E+01  0.50000000000E+01 0.  0.
</event>
<event>
 4    1  0.4944208E-021  0.5000050E+01  0.7818608E-02  0.2136455E+00
        -11   -1    0    0    0    0  0.00000000000E+00  0.00000000000E+00  0.50000499739E+01  0.50000500000E+01  0.51100000000E-03 0.  1.
         11   -1    0    0    0    0 -0.00000000000E+00 -0.00000000000E+00 -0.50000499739E+01  0.50000500000E+01  0.51100000000E-03 0. -1.
         50    1    1    2    0    0 -0.16797857857E-01 -0.11241452876E-01 -0.95636922082E-02  0.50000500000E+01  0.50000000000E+01 0.  1.
         50    1    1    2    0    0  0.16797857857E-01  0.11241452876E-01  0.95636922082E-02  0.50000500000E+01  0.50000000000E+01 0.  0.
</event>
<event>
 4    1  0.4944208E-021  0.5000050E+01  0.7818608E-02  0.2136455E+00
        -11   -1    0    0    0    0  0.00000000000E+00  0.00000000000E+00  0.50000499739E+01  0.50000500000E+01  0.51100000000E-03 0.  1.
         11   -1    0    0    0    0 -0.00000000000E+00 -0.00000000000E+00 -0.50000499739E+01  0.50000500000E+01  0.51100000000E-03 0. -1.
         50    1    1    2    0    0 -0.22959982476E-02  0.33127911946E-02 -0.21994460815E-01  0.50000500000E+01  0.50000000000E+01 0.  0.
         50    1    1    2    0    0  0.22959982476E-02 -0.33127911946E-02  0.21994460815E-01  0.50000500000E+01  0.50000000000E+01 0.  1.
</event>
<event>
 4    1  0.4944208E-021  0.5000050E+01  0.7818608E-02  0.2136455E+00
        -11   -1    0    0    0    0  0.00000000000E+00  0.00000000000E+00  0.50000499739E+01  0.50000500000E+01  0.51100000000E-03 0. -1.
         11   -1    0    0    0    0 -0.00000000000E+00 -0.00000000000E+00 -0.50000499739E+01  0.50000500000E+01  0.51100000000E-03 0.  1.
         50    1    1    2    0    0 -0.40006571976E-02 -0.20222769041E-01 -0.86623815597E-02  0.50000500000E+01  0.50000000000E+01 0. -1.
         50    1    1    2    0    0  0.40006571976E-02  0.20222769041E-01  0.86623815597E-02  0.50000500000E+01  0.50000000000E+01 0.  0.
</event>
<event>
 4    1  0.4944208E-021  0.5000050E+01  0.7818608E-02  0.2136455E+00
        -11   -1    0    0    0    0  0.00000000000E+00  0.00000000000E+00  0.50000499739E+01  0.50000500000E+01  0.51100000000E-03 0. -1.
         11   -1    0    0    0    0 -0.00000000000E+00 -0.00000000000E+00 -0.50000499739E+01  0.50000500000E+01  0.51100000000E-03 0.  1.
         50    1    1    2    0    0  0.18358137991E-01 -0.89683249901E-02 -0.90857259694E-02  0.50000500000E+01  0.50000000000E+01 0. -1.
         50    1    1    2    0    0 -0.18358137991E-01  0.89683249901E-02  0.90857259694E-02  0.50000500000E+01  0.50000000000E+01 0.  1.
</event>
<event>
 4    1  0.4944208E-021  0.5000050E+01  0.7818608E-02  0.2136455E+00
        -11   -1    0    0    0    0  0.00000000000E+00  0.00000000000E+00  0.50000499739E+01  0.50000500000E+01  0.51100000000E-03 0.  1.
         11   -1    0    0    0    0 -0.00000000000E+00 -0.00000000000E+00 -0.50000499739E+01  0.50000500000E+01  0.51100000000E-03 0. -1.
         50    1    1    2    0    0  0.12806333948E-02 -0.36375543900E-02  0.22025682195E-01  0.50000500000E+01  0.50000000000E+01 0.  0.
         50    1    1    2    0    0 -0.12806333948E-02  0.36375543900E-02 -0.22025682195E-01  0.50000500000E+01  0.50000000000E+01 0. -1.
</event>
<event>
 4    1  0.4944208E-021  0.5000050E+01  0.7818608E-02  0.2136455E+00
        -11   -1    0    0    0    0  0.00000000000E+00  0.00000000000E+00  0.50000499739E+01  0.50000500000E+01  0.51100000000E-03 0.  1.
         11   -1    0    0    0    0 -0.00000000000E+00 -0.00000000000E+00 -0.50000499739E+01  0.50000500000E+01  0.51100000000E-03 0. -1.
         50    1    1    2    0    0  0.71822933015E-02 -0.18907126450E-01  0.95361277432E-02  0.50000500000E+01  0.50000000000E+01 0.  0.
         50    1    1    2    0    0 -0.71822933015E-02  0.18907126450E-01 -0.95361277432E-02  0.50000500000E+01  0.50000000000E+01 0.  1.
</event>
<event>
 4    1  0.4944208E-021  0.5000050E+01  0.7818608E-02  0.2136455E+00
        -11   -1    0    0    0    0  0.00000000000E+00  0.00000000000E+00  0.50000499739E+01  0.50000500000E+01  0.51100000000E-03 0. -1.
         11   -1    0    0    0    0 -0.00000000000E+00 -0.00000000000E+00 -0.50000499739E+01  0.50000500000E+01  0.51100000000E-03 0.  1.
         50    1    1    2    0    0  0.16815705412E-01 -0.44991837932E-02  0.14035380176E-01  0.50000500000E+01  0.50000000000E+01 0.  0.
         50    1    1    2    0    0 -0.16815705412E-01  0.44991837932E-02 -0.14035380176E-01  0.50000500000E+01  0.50000000000E+01 0.  0.
</event>
<event>
 4    1  0.4944208E-021  0.5000050E+01  0.7818608E-02  0.2136455E+00
        -11   -1    0    0    0    0  0.00000000000E+00  0.00000000000E+00  0.50000499739E+01  0.50000500000E+01  0.51100000000E-03 0. -1.
         11   -1    0    0    0    0 -0.00000000000E+00 -0.00000000000E+00 -0.50000499739E+01  0.50000500000E+01  0.51100000000E-03 0.  1.
         50    1    1    2    0    0  0.10452345202E-01  0.58213541125E-02 -0.18890813007E-01  0.50000500000E+01  0.50000000000E+01 0.  1.
         50    1    1    2    0    0 -0.10452345202E-01 -0.58213541125E-02  0.18890813007E-01  0.50000500000E+01  0.50000000000E+01 0. -1.
</event>
<event>
 4    1  0.4944208E-021  0.5000050E+01  0.7818608E-02  0.2136455E+00
        -11   -1    0    0    0    0  0.00000000000E+00  0.00000000000E+00  0.50000499739E+01  0.50000500000E+01  0.51100000000E-03 0. -1.
         11   -1    0    0    0    0 -0.00000000000E+00 -0.00000000000E+00 -0.50000499739E+01  0.50000500000E+01  0.51100000000E-03 0.  1.
         50    1    1    2    0    0  0.11341900971E-01  0.17683381852E-01 -0.76590984234E-02  0.50000500000E+01  0.50000000000E+01 0. -1.
         50    1    1    2    0    0 -0.11341900971E-01 -0.17683381852E-01  0.76590984234E-02  0.50000500000E+01  0.50000000000E+01 0.  0.
</event>
<event>
 4    1  0.4944208E-021  0.5000050E+01  0.7818608E-02  0.2136455E+00
        -11   -1    0    0    0    0  0.00000000000E+00  0.00000000000E+00  0.50000499739E+01  0.50000500000E+01  0.51100000000E-03 0. -1.
         11   -1    0    0    0    0 -0.00000000000E+00 -0.00000000000E+00 -0.50000499739E+01  0.50000500000E+01  0.51100000000E-03 0.  1.
         50    1    1    2    0    0  0.17002104657E-01  0.10283822558E-01  0.10255434209E-01  0.50000500000E+01  0.50000000000E+01 0. -1.
         50    1    1    2    0    0 -0.17002104657E-01 -0.10283822558E-01 -0.10255434209E-01  0.50000500000E+01  0.50000000000E+01 0.  1.
</event>
<event>
 4    1  0.4944208E-021  0.5000050E+01  0.7818608E-02  0.2136455E+00
        -11   -1    0    0    0    0  0.00000000000E+00  0.00000000000E+00  0.50000499739E+01  0.50000500000E+01  0.51100000000E-03 0. -1.
         11   -1    0    0    0    0 -0.00000000000E+00 -0.00000000000E+00 -0.50000499739E+01  0.50000500000E+01  0.51100000000E-03 0.  1.
         50    1    1    2    0    0  0.44959492964E-02 -0.29132859589E-02 -0.21709484214E-01  0.50000500000E+01  0.50000000000E+01 0.  1.
         50    1    1    2    0    0 -0.44959492964E-02  0.29132859589E-02  0.21709484214E-01  0.50000500000E+01  0.50000000000E+01 0.  0.
</event>
<event>
 4    1  0.4944208E-021  0.5000050E+01  0.7818608E-02  0.2136455E+00
        -11   -1    0    0    0    0  0.00000000000E+00  0.00000000000E+00  0.50000499739E+01  0.50000500000E+01  0.51100000000E-03 0.  1.
         11   -1    0    0    0    0 -0.00000000000E+00 -0.00000000000E+00 -0.50000499739E+01  0.50000500000E+01  0.51100000000E-03 0. -1.
         50    1    1    2    0    0 -0.28830016298E-02  0.51893294782E-02  0.21558331595E-01  0.50000500000E+01  0.50000000000E+01 0.  0.
         50    1    1    2    0    0  0.28830016298E-02 -0.51893294782E-02 -0.21558331595E-01  0.50000500000E+01  0.50000000000E+01 0. -1.
</event>
<event>
 4    1  0.4944208E-021  0.5000050E+01  0.7818608E-02  0.2136455E+00
        -11   -1    0    0    0    0  0.00000000000E+00  0.00000000000E+00  0.50000499739E+01  0.50000500000E+01  0.51100000000E-03 0. -1.
         11   -1    0    0    0    0 -0.00000000000E+00 -0.00000000000E+00 -0.50000499739E+01  0.50000500000E+01  0.51100000000E-03 0.  1.
         50    1    1    2    0    0  0.22029465994E-01 -0.16826312722E-02 -0.34458496807E-02  0.50000500000E+01  0.50000000000E+01 0. -1.
         50    1    1    2    0    0 -0.22029465994E-01  0.16826312722E-02  0.34458496807E-02  0.50000500000E+01  0.50000000000E+01 0.  0.
</event>
<event>
 4    1  0.4944208E-021  0.5000050E+01  0.7818608E-02  0.2136455E+00
        -11   -1    0    0    0    0  0.00000000000E+00  0.00000000000E+00  0.50000499739E+01  0.50000500000E+01  0.51100000000E-03 0.  1.
         11   -1    0    0    0    0 -0.00000000000E+00 -0.00000000000E+00 -0.50000499739E+01  0.50000500000E+01  0.51100000000E-03 0. -1.
         50    1    1    2    0    0 -0.11961635934E-01 -0.15875585536E-01 -0.10241462282E-01  0.50000500000E+01  0.50000000000E+01 0.  1.
         50    1    1    2    0    0  0.11961635934E-01  0.15875585536E-01  0.10241462282E-01  0.50000500000E+01  0.50000000000E+01 0. -1.
</event>
<event>
 4    1  0.4944208E-021  0.5000050E+01  0.7818608E-02  0.2136455E+00
        -11   -1    0    0    0    0  0.00000000000E+00  0.00000000000E+00  0.50000499739E+01  0.50000500000E+01  0.51100000000E-03 0. -1.
         11   -1    0    0    0    0 -0.00000000000E+00 -0.00000000000E+00 -0.50000499739E+01  0.50000500000E+01  0.51100000000E-03 0.  1.
         50    1    1    2    0    0 -0.11088929272E-01 -0.14947135259E-01 -0.12394405801E-01  0.50000500000E+01  0.50000000000E+01 0.  1.
         50    1    1    2    0    0  0.11088929272E-01  0.14947135259E-01  0.12394405801E-01  0.50000500000E+01  0.50000000000E+01 0. -1.
</event>
<event>
 4    1  0.4944208E-021  0.5000050E+01  0.7818608E-02  0.2136455E+00
        -11   -1    0    0    0    0  0.00000000000E+00  0.00000000000E+00  0.50000499739E+01  0.50000500000E+01  0.51100000000E-03 0. -1.
         11   -1    0    0    0    0 -0.00000000000E+00 -0.00000000000E+00 -0.50000499739E+01  0.50000500000E+01  0.51100000000E-03 0.  1.
         50    1    1    2    0    0  0.14543837644E-01 -0.16841380345E-01 -0.22016345409E-02  0.50000500000E+01  0.50000000000E+01 0.  0.
         50    1    1    2    0    0 -0.14543837644E-01  0.16841380345E-01  0.22016345409E-02  0.50000500000E+01  0.50000000000E+01 0. -1.
</event>
<event>
 4    1  0.4944208E-021  0.5000050E+01  0.7818608E-02  0.2136455E+00
        -11   -1    0    0    0    0  0.00000000000E+00  0.00000000000E+00  0.50000499739E+01  0.50000500000E+01  0.51100000000E-03 0. -1.
         11   -1    0    0    0    0 -0.00000000000E+00 -0.00000000000E+00 -0.50000499739E+01  0.50000500000E+01  0.51100000000E-03 0.  1.
         50    1    1    2    0    0 -0.43576313313E-02 -0.66144779936E-02  0.20910816102E-01  0.50000500000E+01  0.50000000000E+01 0.  0.
         50    1    1    2    0    0  0.43576313313E-02  0.66144779936E-02 -0.20910816102E-01  0.50000500000E+01  0.50000000000E+01 0.  1.
</event>
<event>
 4    1  0.4944208E-021  0.5000050E+01  0.7818608E-02  0.2136455E+00
        -11   -1    0    0    0    0  0.00000000000E+00  0.00000000000E+00  0.50000499739E+01  0.50000500000E+01  0.51100000000E-03 0. -1.
         11   -1    0    0    0    0 -0.00000000000E+00 -0.00000000000E+00 -0.50000499739E+01  0.50000500000E+01  0.51100000000E-03 0.  1.
         50    1    1    2    0    0 -0.94942247987E-02  0.16260288694E-01 -0.12060895782E-01  0.50000500000E+01  0.50000000000E+01 0.  1.
         50    1    1    2    0    0  0.94942247987E-02 -0.16260288694E-01  0.12060895782E-01  0.50000500000E+01  0.50000000000E+01 0.  1.
</event>
<event>
 4    1  0.4944208E-021  0.5000050E+01  0.7818608E-02  0.2136455E+00
        -11   -1    0    0    0    0  0.00000000000E+00  0.00000000000E+00  0.50000499739E+01  0.50000500000E+01  0.51100000000E-03 0. -1.
         11   -1    0    0    0    0 -0.00000000000E+00 -0.00000000000E+00 -0.50000499739E+01  0.50000500000E+01  0.51100000000E-03 0.  1.
         50    1    1    2    0    0  0.22330105773E-01  0.10969919142E-02 -0.40679835079E-03  0.50000500000E+01  0.50000000000E+01 0.  0.
         50    1    1    2    0    0 -0.22330105773E-01 -0.10969919142E-02  0.40679835079E-03  0.50000500000E+01  0.50000000000E+01 0.  1.
</event>
<event>
 4    1  0.4944208E-021  0.5000050E+01  0.7818608E-02  0.2136455E+00
        -11   -1    0    0    0    0  0.00000000000E+00  0.00000000000E+00  0.50000499739E+01  0.50000500000E+01  0.51100000000E-03 0. -1.
         11   -1    0    0    0    0 -0.00000000000E+00 -0.00000000000E+00 -0.50000499739E+01  0.50000500000E+01  0.51100000000E-03 0.  1.
         50    1    1    2    0    0 -0.10452889064E-01  0.23566593015E-02 -0.19626150085E-01  0.50000500000E+01  0.50000000000E+01 0.  1.
         50    1    1    2    0    0  0.10452889064E-01 -0.23566593015E-02  0.19626150085E-01  0.50000500000E+01  0.50000000000E+01 0. -1.
</event>
<event>
 4    1  0.4944208E-021  0.5000050E+01  0.7818608E-02  0.2136455E+00
        -11   -1    0    0    0    0  0.00000000000E+00  0.00000000000E+00  0.50000499739E+01  0.50000500000E+01  0.51100000000E-03 0. -1.
         11   -1    0    0    0    0 -0.00000000000E+00 -0.00000000000E+00 -0.50000499739E+01  0.50000500000E+01  0.51100000000E-03 0.  1.
         50    1    1    2    0    0  0.17465283257E-01 -0.12236738587E-01 -0.67252218931E-02  0.50000500000E+01  0.50000000000E+01 0.  0.
         50    1    1    2    0    0 -0.17465283257E-01  0.12236738587E-01  0.67252218931E-02  0.50000500000E+01  0.50000000000E+01 0.  0.
</event>
<event>
 4    1  0.4944208E-021  0.5000050E+01  0.7818608E-02  0.2136455E+00
        -11   -1    0    0    0    0  0.00000000000E+00  0.00000000000E+00  0.50000499739E+01  0.50000500000E+01  0.51100000000E-03 0.  1.
         11   -1    0    0    0    0 -0.00000000000E+00 -0.00000000000E+00 -0.50000499739E+01  0.50000500000E+01  0.51100000000E-03 0. -1.
         50    1    1    2    0    0 -0.90152961254E-02 -0.42560866429E-02 -0.20015310696E-01  0.50000500000E+01  0.50000000000E+01 0. -1.
         50    1    1    2    0    0  0.90152961254E-02  0.42560866429E-02  0.20015310696E-01  0.50000500000E+01  0.50000000000E+01 0.  1.
</event>
<event>
 4    1  0.4944208E-021  0.5000050E+01  0.7818608E-02  0.2136455E+00
        -11   -1    0    0    0    0  0.00000000000E+00  0.00000000000E+00  0.50000499739E+01  0.50000500000E+01  0.51100000000E-03 0. -1.
         11   -1    0    0    0    0 -0.00000000000E+00 -0.00000000000E+00 -0.50000499739E+01  0.50000500000E+01  0.51100000000E-03 0.  1.
         50    1    1    2    0    0  0.19105131091E-02 -0.21844992800E-01  0.43759260974E-02  0.50000500000E+01  0.50000000000E+01 0.  1.
         50    1    1    2    0    0 -0.19105131091E-02  0.21844992800E-01 -0.43759260974E-02  0.50000500000E+01  0.50000000000E+01 0. -1.
</event>
<event>
 4    1  0.4944208E-021  0.5000050E+01  0.7818608E-02  0.2136455E+00
        -11   -1    0    0    0    0  0.00000000000E+00  0.00000000000E+00  0.50000499739E+01  0.50000500000E+01  0.51100000000E-03 0. -1.
         11   -1    0    0    0    0 -0.00000000000E+00 -0.00000000000E+00 -0.50000499739E+01  0.50000500000E+01  0.51100000000E-03 0.  1.
         50    1    1    2    0    0 -0.12183029427E-01 -0.11562262459E-03 -0.18750011344E-01  0.50000500000E+01  0.50000000000E+01 0.  0.
         50    1    1    2    0    0  0.12183029427E-01  0.11562262459E-03  0.18750011344E-01  0.50000500000E+01  0.50000000000E+01 0. -1.
</event>
<event>
 4    1  0.4944208E-021  0.5000050E+01  0.7818608E-02  0.2136455E+00
        -11   -1    0    0    0    0  0.00000000000E+00  0.00000000000E+00  0.50000499739E+01  0.50000500000E+01  0.51100000000E-03 0. -1.
         11   -1    0    0    0    0 -0.00000000000E+00 -0.00000000000E+00 -0.50000499739E+01  0.50000500000E+01  0.51100000000E-03 0.  1.
         50    1    1    2    0    0 -0.10249438592E-01  0.17615843877E-01  0.91996496154E-02  0.50000500000E+01  0.50000000000E+01 0.  1.
         50    1    1    2    0    0  0.10249438592E-01 -0.17615843877E-01 -0.91996496154E-02  0.50000500000E+01  0.50000000000E+01 0.  1.
</event>
<event>
 4    1  0.4944208E-021  0.5000050E+01  0.7818608E-02  0.2136455E+00
        -11   -1    0    0    0    0  0.00000000000E+00  0.00000000000E+00  0.50000499739E+01  0.50000500000E+01  0.51100000000E-03 0.  1.
         11   -1    0    0    0    0 -0.00000000000E+00 -0.00000000000E+00 -0.50000499739E+01  0.50000500000E+01  0.51100000000E-03 0. -1.
         50    1    1    2    0    0  0.26262364165E-02 -0.22151096409E-01 -0.15602275946E-02  0.50000500000E+01  0.50000000000E+01 0.  1.
         50    1    1    2    0    0 -0.26262364165E-02  0.22151096409E-01  0.15602275946E-02  0.50000500000E+01  0.50000000000E+01 0. -1.
</event>
<event>
 4    1  0.4944208E-021  0.5000050E+01  0.7818608E-02  0.2136455E+00
        -11   -1    0    0    0    0  0.00000000000E+00  0.00000000000E+00  0.50000499739E+01  0.50000500000E+01  0.51100000000E-03 0. -1.
         11   -1    0    0    0    0 -0.00000000000E+00 -0.00000000000E+00 -0.50000499739E+01  0.50000500000E+01  0.51100000000E-03 0.  1.
         50    1    1    2    0    0  0.24937584452E-02  0.17718658277E-01  0.13410175900E-01  0.50000500000E+01  0.50000000000E+01 0. -1.
         50    1    1    2    0    0 -0.24937584452E-02 -0.17718658277E-01 -0.13410175900E-01  0.50000500000E+01  0.50000000000E+01 0.  1.
</event>
<event>
 4    1  0.4944208E-021  0.5000050E+01  0.7818608E-02  0.2136455E+00
        -11   -1    0    0    0    0  0.00000000000E+00  0.00000000000E+00  0.50000499739E+01  0.50000500000E+01  0.51100000000E-03 0. -1.
         11   -1    0    0    0    0 -0.00000000000E+00 -0.00000000000E+00 -0.50000499739E+01  0.50000500000E+01  0.51100000000E-03 0.  1.
         50    1    1    2    0    0  0.51783066590E-02  0.19449437534E-01 -0.97420233914E-02  0.50000500000E+01  0.50000000000E+01 0.  1.
         50    1    1    2    0    0 -0.51783066590E-02 -0.19449437534E-01  0.97420233914E-02  0.50000500000E+01  0.50000000000E+01 0. -1.
</event>
<event>
 4    1  0.4944208E-021  0.5000050E+01  0.7818608E-02  0.2136455E+00
        -11   -1    0    0    0    0  0.00000000000E+00  0.00000000000E+00  0.50000499739E+01  0.50000500000E+01  0.51100000000E-03 0.  1.
         11   -1    0    0    0    0 -0.00000000000E+00 -0.00000000000E+00 -0.50000499739E+01  0.50000500000E+01  0.51100000000E-03 0. -1.
         50    1    1    2    0    0  0.50688154694E-02  0.14015723018E-01 -0.16669406649E-01  0.50000500000E+01  0.50000000000E+01 0. -1.
         50    1    1    2    0    0 -0.50688154694E-02 -0.14015723018E-01  0.16669406649E-01  0.50000500000E+01  0.50000000000E+01 0.  0.
</event>
<event>
 4    1  0.4944208E-021  0.5000050E+01  0.7818608E-02  0.2136455E+00
        -11   -1    0    0    0    0  0.00000000000E+00  0.00000000000E+00  0.50000499739E+01  0.50000500000E+01  0.51100000000E-03 0. -1.
         11   -1    0    0    0    0 -0.00000000000E+00 -0.00000000000E+00 -0.50000499739E+01  0.50000500000E+01  0.51100000000E-03 0.  1.
         50    1    1    2    0    0 -0.18900212608E-01  0.71592383444E-02  0.95671191951E-02  0.50000500000E+01  0.50000000000E+01 0. -1.
         50    1    1    2    0    0  0.18900212608E-01 -0.71592383444E-02 -0.95671191951E-02  0.50000500000E+01  0.50000000000E+01 0.  1.
</event>
<event>
 4    1  0.4944208E-021  0.5000050E+01  0.7818608E-02  0.2136455E+00
        -11   -1    0    0    0    0  0.00000000000E+00  0.00000000000E+00  0.50000499739E+01  0.50000500000E+01  0.51100000000E-03 0. -1.
         11   -1    0    0    0    0 -0.00000000000E+00 -0.00000000000E+00 -0.50000499739E+01  0.50000500000E+01  0.51100000000E-03 0.  1.
         50    1    1    2    0    0 -0.13595700519E-01 -0.14526441443E-01  0.10204995169E-01  0.50000500000E+01  0.50000000000E+01 0. -1.
         50    1    1    2    0    0  0.13595700519E-01  0.14526441443E-01 -0.10204995169E-01  0.50000500000E+01  0.50000000000E+01 0.  1.
</event>
<event>
 4    1  0.4944208E-021  0.5000050E+01  0.7818608E-02  0.2136455E+00
        -11   -1    0    0    0    0  0.00000000000E+00  0.00000000000E+00  0.50000499739E+01  0.50000500000E+01  0.51100000000E-03 0.  1.
         11   -1    0    0    0    0 -0.00000000000E+00 -0.00000000000E+00 -0.50000499739E+01  0.50000500000E+01  0.51100000000E-03 0. -1.
         50    1    1    2    0    0 -0.18592095055E-01 -0.10538146315E-01 -0.65790556849E-02  0.50000500000E+01  0.50000000000E+01 0. -1.
         50    1    1    2    0    0  0.18592095055E-01  0.10538146315E-01  0.65790556849E-02  0.50000500000E+01  0.50000000000E+01 0.  1.
</event>
<event>
 4    1  0.4944208E-021  0.5000050E+01  0.7818608E-02  0.2136455E+00
        -11   -1    0    0    0    0  0.00000000000E+00  0.00000000000E+00  0.50000499739E+01  0.50000500000E+01  0.51100000000E-03 0. -1.
         11   -1    0    0    0    0 -0.00000000000E+00 -0.00000000000E+00 -0.50000499739E+01  0.50000500000E+01  0.51100000000E-03 0.  1.
         50    1    1    2    0    0 -0.43347130905E-02  0.75692367944E-02 -0.20589303455E-01  0.50000500000E+01  0.50000000000E+01 0.  1.
         50    1    1    2    0    0  0.43347130905E-02 -0.75692367944E-02  0.20589303455E-01  0.50000500000E+01  0.50000000000E+01 0. -1.
</event>
<event>
 4    1  0.4944208E-021  0.5000050E+01  0.7818608E-02  0.2136455E+00
        -11   -1    0    0    0    0  0.00000000000E+00  0.00000000000E+00  0.50000499739E+01  0.50000500000E+01  0.51100000000E-03 0. -1.
         11   -1    0    0    0    0 -0.00000000000E+00 -0.00000000000E+00 -0.50000499739E+01  0.50000500000E+01  0.51100000000E-03 0.  1.
         50    1    1    2    0    0  0.10414963225E-01  0.82888551894E-02  0.17967357086E-01  0.50000500000E+01  0.50000000000E+01 0. -1.
         50    1    1    2    0    0 -0.10414963225E-01 -0.82888551894E-02 -0.17967357086E-01  0.50000500000E+01  0.50000000000E+01 0.  0.
</event>
<event>
 4    1  0.4944208E-021  0.5000050E+01  0.7818608E-02  0.2136455E+00
        -11   -1    0    0    0    0  0.00000000000E+00  0.00000000000E+00  0.50000499739E+01  0.50000500000E+01  0.51100000000E-03 0.  1.
         11   -1    0    0    0    0 -0.00000000000E+00 -0.00000000000E+00 -0.50000499739E+01  0.50000500000E+01  0.51100000000E-03 0. -1.
         50    1    1    2    0    0 -0.10071128799E-01 -0.15176153608E-01 -0.12971477417E-01  0.50000500000E+01  0.50000000000E+01 0. -1.
         50    1    1    2    0    0  0.10071128799E-01  0.15176153608E-01  0.12971477417E-01  0.50000500000E+01  0.50000000000E+01 0.  0.
</event>
<event>
 4    1  0.4944208E-021  0.5000050E+01  0.7818608E-02  0.2136455E+00
        -11   -1    0    0    0    0  0.00000000000E+00  0.00000000000E+00  0.50000499739E+01  0.50000500000E+01  0.51100000000E-03 0.  1.
         11   -1    0    0    0    0 -0.00000000000E+00 -0.00000000000E+00 -0.50000499739E+01  0.50000500000E+01  0.51100000000E-03 0. -1.
         50    1    1    2    0    0 -0.29193989549E-02  0.73543979346E-02 -0.20913929348E-01  0.50000500000E+01  0.50000000000E+01 0.  0.
         50    1    1    2    0    0  0.29193989549E-02 -0.73543979346E-02  0.20913929348E-01  0.50000500000E+01  0.50000000000E+01 0.  0.
</event>
<event>
 4    1  0.4944208E-021  0.5000050E+01  0.7818608E-02  0.2136455E+00
        -11   -1    0    0    0    0  0.00000000000E+00  0.00000000000E+00  0.50000499739E+01  0.50000500000E+01  0.51100000000E-03 0.  1.
         11   -1    0    0    0    0 -0.00000000000E+00 -0.00000000000E+00 -0.50000499739E+01  0.50000500000E+01  0.51100000000E-03 0. -1.
         50    1    1    2    0    0  0.20010503628E-01 -0.55795073826E-02  0.82735326130E-02  0.50000500000E+01  0.50000000000E+01 0.  1.
         50    1    1    2    0    0 -0.20010503628E-01  0.55795073826E-02 -0.82735326130E-02  0.50000500000E+01  0.50000000000E+01 0. -1.
</event>
<event>
 4    1  0.4944208E-021  0.5000050E+01  0.7818608E-02  0.2136455E+00
        -11   -1    0    0    0    0  0.00000000000E+00  0.00000000000E+00  0.50000499739E+01  0.50000500000E+01  0.51100000000E-03 0.  1.
         11   -1    0    0    0    0 -0.00000000000E+00 -0.00000000000E+00 -0.50000499739E+01  0.50000500000E+01  0.51100000000E-03 0. -1.
         50    1    1    2    0    0  0.14399741708E-01  0.36206874564E-03 -0.17103182305E-01  0.50000500000E+01  0.50000000000E+01 0. -1.
         50    1    1    2    0    0 -0.14399741708E-01 -0.36206874564E-03  0.17103182305E-01  0.50000500000E+01  0.50000000000E+01 0.  1.
</event>
<event>
 4    1  0.4944208E-021  0.5000050E+01  0.7818608E-02  0.2136455E+00
        -11   -1    0    0    0    0  0.00000000000E+00  0.00000000000E+00  0.50000499739E+01  0.50000500000E+01  0.51100000000E-03 0. -1.
         11   -1    0    0    0    0 -0.00000000000E+00 -0.00000000000E+00 -0.50000499739E+01  0.50000500000E+01  0.51100000000E-03 0.  1.
         50    1    1    2    0    0 -0.19875470151E-02 -0.19034156480E-01 -0.11565165107E-01  0.50000500000E+01  0.50000000000E+01 0. -1.
         50    1    1    2    0    0  0.19875470151E-02  0.19034156480E-01  0.11565165107E-01  0.50000500000E+01  0.50000000000E+01 0. -1.
</event>
<event>
 4    1  0.4944208E-021  0.5000050E+01  0.7818608E-02  0.2136455E+00
        -11   -1    0    0    0    0  0.00000000000E+00  0.00000000000E+00  0.50000499739E+01  0.50000500000E+01  0.51100000000E-03 0.  1.
         11   -1    0    0    0    0 -0.00000000000E+00 -0.00000000000E+00 -0.50000499739E+01  0.50000500000E+01  0.51100000000E-03 0. -1.
         50    1    1    2    0    0  0.13704407217E-01 -0.13703831761E-01 -0.11153327660E-01  0.50000500000E+01  0.50000000000E+01 0.  1.
         50    1    1    2    0    0 -0.13704407217E-01  0.13703831761E-01  0.11153327660E-01  0.50000500000E+01  0.50000000000E+01 0. -1.
</event>
<event>
 4    1  0.4944208E-021  0.5000050E+01  0.7818608E-02  0.2136455E+00
        -11   -1    0    0    0    0  0.00000000000E+00  0.00000000000E+00  0.50000499739E+01  0.50000500000E+01  0.51100000000E-03 0.  1.
         11   -1    0    0    0    0 -0.00000000000E+00 -0.00000000000E+00 -0.50000499739E+01  0.50000500000E+01  0.51100000000E-03 0. -1.
         50    1    1    2    0    0 -0.17746418392E-01  0.13428877961E-01 -0.21754013275E-02  0.50000500000E+01  0.50000000000E+01 0.  1.
         50    1    1    2    0    0  0.17746418392E-01 -0.13428877961E-01  0.21754013275E-02  0.50000500000E+01  0.50000000000E+01 0. -1.
</event>
<event>
 4    1  0.4944208E-021  0.5000050E+01  0.7818608E-02  0.2136455E+00
        -11   -1    0    0    0    0  0.00000000000E+00  0.00000000000E+00  0.50000499739E+01  0.50000500000E+01  0.51100000000E-03 0. -1.
         11   -1    0    0    0    0 -0.00000000000E+00 -0.00000000000E+00 -0.50000499739E+01  0.50000500000E+01  0.51100000000E-03 0.  1.
         50    1    1    2    0    0 -0.17306200322E-01 -0.43813156002E-02 -0.13464843260E-01  0.50000500000E+01  0.50000000000E+01 0.  0.
         50    1    1    2    0    0  0.17306200322E-01  0.43813156002E-02  0.13464843260E-01  0.50000500000E+01  0.50000000000E+01 0.  0.
</event>
<event>
 4    1  0.4944208E-021  0.5000050E+01  0.7818608E-02  0.2136455E+00
        -11   -1    0    0    0    0  0.00000000000E+00  0.00000000000E+00  0.50000499739E+01  0.50000500000E+01  0.51100000000E-03 0. -1.
         11   -1    0    0    0    0 -0.00000000000E+00 -0.00000000000E+00 -0.50000499739E+01  0.50000500000E+01  0.51100000000E-03 0.  1.
         50    1    1    2    0    0  0.16843117169E-01 -0.13677219714E-01  0.54079168773E-02  0.50000500000E+01  0.50000000000E+01 0. -1.
         50    1    1    2    0    0 -0.16843117169E-01  0.13677219714E-01 -0.54079168773E-02  0.50000500000E+01  0.50000000000E+01 0.  1.
</event>
<event>
 4    1  0.4944208E-021  0.5000050E+01  0.7818608E-02  0.2136455E+00
        -11   -1    0    0    0    0  0.00000000000E+00  0.00000000000E+00  0.50000499739E+01  0.50000500000E+01  0.51100000000E-03 0. -1.
         11   -1    0    0    0    0 -0.00000000000E+00 -0.00000000000E+00 -0.50000499739E+01  0.50000500000E+01  0.51100000000E-03 0.  1.
         50    1    1    2    0    0  0.18988844236E-02 -0.46435632467E-02  0.21790687422E-01  0.50000500000E+01  0.50000000000E+01 0. -1.
         50    1    1    2    0    0 -0.18988844236E-02  0.46435632467E-02 -0.21790687422E-01  0.50000500000E+01  0.50000000000E+01 0. -1.
</event>
<event>
 4    1  0.4944208E-021  0.5000050E+01  0.7818608E-02  0.2136455E+00
        -11   -1    0    0    0    0  0.00000000000E+00  0.00000000000E+00  0.50000499739E+01  0.50000500000E+01  0.51100000000E-03 0. -1.
         11   -1    0    0    0    0 -0.00000000000E+00 -0.00000000000E+00 -0.50000499739E+01  0.50000500000E+01  0.51100000000E-03 0.  1.
         50    1    1    2    0    0  0.97045043873E-02 -0.15590337695E-01  0.12757996126E-01  0.50000500000E+01  0.50000000000E+01 0. -1.
         50    1    1    2    0    0 -0.97045043873E-02  0.15590337695E-01 -0.12757996126E-01  0.50000500000E+01  0.50000000000E+01 0. -1.
</event>
<event>
 4    1  0.4944208E-021  0.5000050E+01  0.7818608E-02  0.2136455E+00
        -11   -1    0    0    0    0  0.00000000000E+00  0.00000000000E+00  0.50000499739E+01  0.50000500000E+01  0.51100000000E-03 0.  1.
         11   -1    0    0    0    0 -0.00000000000E+00 -0.00000000000E+00 -0.50000499739E+01  0.50000500000E+01  0.51100000000E-03 0. -1.
         50    1    1    2    0    0 -0.13818269750E-01 -0.15995800052E-01 -0.72933052718E-02  0.50000500000E+01  0.50000000000E+01 0. -1.
         50    1    1    2    0    0  0.13818269750E-01  0.15995800052E-01  0.72933052718E-02  0.50000500000E+01  0.50000000000E+01 0.  1.
</event>
<event>
 4    1  0.4944208E-021  0.5000050E+01  0.7818608E-02  0.2136455E+00
        -11   -1    0    0    0    0  0.00000000000E+00  0.00000000000E+00  0.50000499739E+01  0.50000500000E+01  0.51100000000E-03 0.  1.
         11   -1    0    0    0    0 -0.00000000000E+00 -0.00000000000E+00 -0.50000499739E+01  0.50000500000E+01  0.51100000000E-03 0. -1.
         50    1    1    2    0    0 -0.78095845279E-02 -0.20920253909E-01 -0.11644165410E-02  0.50000500000E+01  0.50000000000E+01 0.  1.
         50    1    1    2    0    0  0.78095845279E-02  0.20920253909E-01  0.11644165410E-02  0.50000500000E+01  0.50000000000E+01 0. -1.
</event>
<event>
 4    1  0.4944208E-021  0.5000050E+01  0.7818608E-02  0.2136455E+00
        -11   -1    0    0    0    0  0.00000000000E+00  0.00000000000E+00  0.50000499739E+01  0.50000500000E+01  0.51100000000E-03 0. -1.
         11   -1    0    0    0    0 -0.00000000000E+00 -0.00000000000E+00 -0.50000499739E+01  0.50000500000E+01  0.51100000000E-03 0.  1.
         50    1    1    2    0    0 -0.21877595436E-01  0.28216047203E-02 -0.36622212828E-02  0.50000500000E+01  0.50000000000E+01 0.  0.
         50    1    1    2    0    0  0.21877595436E-01 -0.28216047203E-02  0.36622212828E-02  0.50000500000E+01  0.50000000000E+01 0. -1.
</event>
<event>
 4    1  0.4944208E-021  0.5000050E+01  0.7818608E-02  0.2136455E+00
        -11   -1    0    0    0    0  0.00000000000E+00  0.00000000000E+00  0.50000499739E+01  0.50000500000E+01  0.51100000000E-03 0. -1.
         11   -1    0    0    0    0 -0.00000000000E+00 -0.00000000000E+00 -0.50000499739E+01  0.50000500000E+01  0.51100000000E-03 0.  1.
         50    1    1    2    0    0  0.52532789038E-04 -0.21695774741E-01 -0.54123099226E-02  0.50000500000E+01  0.50000000000E+01 0. -1.
         50    1    1    2    0    0 -0.52532789038E-04  0.21695774741E-01  0.54123099226E-02  0.50000500000E+01  0.50000000000E+01 0.  0.
</event>
<event>
 4    1  0.4944208E-021  0.5000050E+01  0.7818608E-02  0.2136455E+00
        -11   -1    0    0    0    0  0.00000000000E+00  0.00000000000E+00  0.50000499739E+01  0.50000500000E+01  0.51100000000E-03 0.  1.
         11   -1    0    0    0    0 -0.00000000000E+00 -0.00000000000E+00 -0.50000499739E+01  0.50000500000E+01  0.51100000000E-03 0. -1.
         50    1    1    2    0    0 -0.61118328585E-02  0.54607430660E-02 -0.20804525572E-01  0.50000500000E+01  0.50000000000E+01 0.  1.
         50    1    1    2    0    0  0.61118328585E-02 -0.54607430660E-02  0.20804525572E-01  0.50000500000E+01  0.50000000000E+01 0.  1.
</event>
<event>
 4    1  0.4944208E-021  0.5000050E+01  0.7818608E-02  0.2136455E+00
        -11   -1    0    0    0    0  0.00000000000E+00  0.00000000000E+00  0.50000499739E+01  0.50000500000E+01  0.51100000000E-03 0.  1.
         11   -1    0    0    0    0 -0.00000000000E+00 -0.00000000000E+00 -0.50000499739E+01  0.50000500000E+01  0.51100000000E-03 0. -1.
         50    1    1    2    0    0  0.41298717371E-02  0.19653675603E-01 -0.98325833186E-02  0.50000500000E+01  0.50000000000E+01 0. -1.
         50    1    1    2    0    0 -0.41298717371E-02 -0.19653675603E-01  0.98325833186E-02  0.50000500000E+01  0.50000000000E+01 0.  1.
</event>
<event>
 4    1  0.4944208E-021  0.5000050E+01  0.7818608E-02  0.2136455E+00
        -11   -1    0    0    0    0  0.00000000000E+00  0.00000000000E+00  0.50000499739E+01  0.50000500000E+01  0.51100000000E-03 0. -1.
         11   -1    0    0    0    0 -0.00000000000E+00 -0.00000000000E+00 -0.50000499739E+01  0.50000500000E+01  0.51100000000E-03 0.  1.
         50    1    1    2    0    0 -0.14094807076E-01 -0.85799928812E-02 -0.15090481624E-01  0.50000500000E+01  0.50000000000E+01 0.  0.
         50    1    1    2    0    0  0.14094807076E-01  0.85799928812E-02  0.15090481624E-01  0.50000500000E+01  0.50000000000E+01 0.  1.
</event>
<event>
 4    1  0.4944208E-021  0.5000050E+01  0.7818608E-02  0.2136455E+00
        -11   -1    0    0    0    0  0.00000000000E+00  0.00000000000E+00  0.50000499739E+01  0.50000500000E+01  0.51100000000E-03 0.  1.
         11   -1    0    0    0    0 -0.00000000000E+00 -0.00000000000E+00 -0.50000499739E+01  0.50000500000E+01  0.51100000000E-03 0. -1.
         50    1    1    2    0    0  0.13820691654E-01  0.17559689083E-01 -0.80517171947E-03  0.50000500000E+01  0.50000000000E+01 0.  0.
         50    1    1    2    0    0 -0.13820691654E-01 -0.17559689083E-01  0.80517171947E-03  0.50000500000E+01  0.50000000000E+01 0. -1.
</event>
<event>
 4    1  0.4944208E-021  0.5000050E+01  0.7818608E-02  0.2136455E+00
        -11   -1    0    0    0    0  0.00000000000E+00  0.00000000000E+00  0.50000499739E+01  0.50000500000E+01  0.51100000000E-03 0. -1.
         11   -1    0    0    0    0 -0.00000000000E+00 -0.00000000000E+00 -0.50000499739E+01  0.50000500000E+01  0.51100000000E-03 0.  1.
         50    1    1    2    0    0  0.15516267503E-02 -0.19918562474E-01  0.10042202120E-01  0.50000500000E+01  0.50000000000E+01 0.  0.
         50    1    1    2    0    0 -0.15516267503E-02  0.19918562474E-01 -0.10042202120E-01  0.50000500000E+01  0.50000000000E+01 0. -1.
</event>
<event>
 4    1  0.4944208E-021  0.5000050E+01  0.7818608E-02  0.2136455E+00
        -11   -1    0    0    0    0  0.00000000000E+00  0.00000000000E+00  0.50000499739E+01  0.50000500000E+01  0.51100000000E-03 0.  1.
         11   -1    0    0    0    0 -0.00000000000E+00 -0.00000000000E+00 -0.50000499739E+01  0.50000500000E+01  0.51100000000E-03 0. -1.
         50    1    1    2    0    0 -0.61190563795E-02  0.60702601580E-02  0.20632779518E-01  0.50000500000E+01  0.50000000000E+01 0.  1.
         50    1    1    2    0    0  0.61190563795E-02 -0.60702601580E-02 -0.20632779518E-01  0.50000500000E+01  0.50000000000E+01 0.  0.
</event>
<event>
 4    1  0.4944208E-021  0.5000050E+01  0.7818608E-02  0.2136455E+00
        -11   -1    0    0    0    0  0.00000000000E+00  0.00000000000E+00  0.50000499739E+01  0.50000500000E+01  0.51100000000E-03 0. -1.
         11   -1    0    0    0    0 -0.00000000000E+00 -0.00000000000E+00 -0.50000499739E+01  0.50000500000E+01  0.51100000000E-03 0.  1.
         50    1    1    2    0    0  0.32367700591E-02  0.97758309701E-02 -0.19848399140E-01  0.50000500000E+01  0.50000000000E+01 0.  1.
         50    1    1    2    0    0 -0.32367700591E-02 -0.97758309701E-02  0.19848399140E-01  0.50000500000E+01  0.50000000000E+01 0.  0.
</event>
<event>
 4    1  0.4944208E-021  0.5000050E+01  0.7818608E-02  0.2136455E+00
        -11   -1    0    0    0    0  0.00000000000E+00  0.00000000000E+00  0.50000499739E+01  0.50000500000E+01  0.51100000000E-03 0. -1.
         11   -1    0    0    0    0 -0.00000000000E+00 -0.00000000000E+00 -0.50000499739E+01  0.50000500000E+01  0.51100000000E-03 0.  1.
         50    1    1    2    0    0 -0.27664687570E-02  0.17363601514E-02 -0.22120899711E-01  0.50000500000E+01  0.50000000000E+01 0.  1.
         50    1    1    2    0    0  0.27664687570E-02 -0.17363601514E-02  0.22120899711E-01  0.50000500000E+01  0.50000000000E+01 0.  0.
</event>
<event>
 4    1  0.4944208E-021  0.5000050E+01  0.7818608E-02  0.2136455E+00
        -11   -1    0    0    0    0  0.00000000000E+00  0.00000000000E+00  0.50000499739E+01  0.50000500000E+01  0.51100000000E-03 0. -1.
         11   -1    0    0    0    0 -0.00000000000E+00 -0.00000000000E+00 -0.50000499739E+01  0.50000500000E+01  0.51100000000E-03 0.  1.
         50    1    1    2    0    0  0.29147723575E-02  0.17257595721E-01  0.13916967774E-01  0.50000500000E+01  0.50000000000E+01 0.  0.
         50    1    1    2    0    0 -0.29147723575E-02 -0.17257595721E-01 -0.13916967774E-01  0.50000500000E+01  0.50000000000E+01 0.  0.
</event>
<event>
 4    1  0.4944208E-021  0.5000050E+01  0.7818608E-02  0.2136455E+00
        -11   -1    0    0    0    0  0.00000000000E+00  0.00000000000E+00  0.50000499739E+01  0.50000500000E+01  0.51100000000E-03 0. -1.
         11   -1    0    0    0    0 -0.00000000000E+00 -0.00000000000E+00 -0.50000499739E+01  0.50000500000E+01  0.51100000000E-03 0.  1.
         50    1    1    2    0    0 -0.14361371007E-01 -0.27775764195E-02  0.16912675484E-01  0.50000500000E+01  0.50000000000E+01 0.  0.
         50    1    1    2    0    0  0.14361371007E-01  0.27775764195E-02 -0.16912675484E-01  0.50000500000E+01  0.50000000000E+01 0.  0.
</event>
<event>
 4    1  0.4944208E-021  0.5000050E+01  0.7818608E-02  0.2136455E+00
        -11   -1    0    0    0    0  0.00000000000E+00  0.00000000000E+00  0.50000499739E+01  0.50000500000E+01  0.51100000000E-03 0. -1.
         11   -1    0    0    0    0 -0.00000000000E+00 -0.00000000000E+00 -0.50000499739E+01  0.50000500000E+01  0.51100000000E-03 0.  1.
         50    1    1    2    0    0 -0.51380266208E-02  0.80450723949E-02  0.20220781207E-01  0.50000500000E+01  0.50000000000E+01 0.  0.
         50    1    1    2    0    0  0.51380266208E-02 -0.80450723949E-02 -0.20220781207E-01  0.50000500000E+01  0.50000000000E+01 0.  0.
</event>
<event>
 4    1  0.4944208E-021  0.5000050E+01  0.7818608E-02  0.2136455E+00
        -11   -1    0    0    0    0  0.00000000000E+00  0.00000000000E+00  0.50000499739E+01  0.50000500000E+01  0.51100000000E-03 0. -1.
         11   -1    0    0    0    0 -0.00000000000E+00 -0.00000000000E+00 -0.50000499739E+01  0.50000500000E+01  0.51100000000E-03 0.  1.
         50    1    1    2    0    0  0.10929074934E-01 -0.16105514210E-01 -0.11007735149E-01  0.50000500000E+01  0.50000000000E+01 0.  1.
         50    1    1    2    0    0 -0.10929074934E-01  0.16105514210E-01  0.11007735149E-01  0.50000500000E+01  0.50000000000E+01 0. -1.
</event>
<event>
 4    1  0.4944208E-021  0.5000050E+01  0.7818608E-02  0.2136455E+00
        -11   -1    0    0    0    0  0.00000000000E+00  0.00000000000E+00  0.50000499739E+01  0.50000500000E+01  0.51100000000E-03 0. -1.
         11   -1    0    0    0    0 -0.00000000000E+00 -0.00000000000E+00 -0.50000499739E+01  0.50000500000E+01  0.51100000000E-03 0.  1.
         50    1    1    2    0    0  0.18583902347E-01 -0.10043121423E-02 -0.12394855008E-01  0.50000500000E+01  0.50000000000E+01 0.  0.
         50    1    1    2    0    0 -0.18583902347E-01  0.10043121423E-02  0.12394855008E-01  0.50000500000E+01  0.50000000000E+01 0.  0.
</event>
<event>
 4    1  0.4944208E-021  0.5000050E+01  0.7818608E-02  0.2136455E+00
        -11   -1    0    0    0    0  0.00000000000E+00  0.00000000000E+00  0.50000499739E+01  0.50000500000E+01  0.51100000000E-03 0. -1.
         11   -1    0    0    0    0 -0.00000000000E+00 -0.00000000000E+00 -0.50000499739E+01  0.50000500000E+01  0.51100000000E-03 0.  1.
         50    1    1    2    0    0 -0.43281462908E-02 -0.19762314634E-01  0.95247346413E-02  0.50000500000E+01  0.50000000000E+01 0. -1.
         50    1    1    2    0    0  0.43281462908E-02  0.19762314634E-01 -0.95247346413E-02  0.50000500000E+01  0.50000000000E+01 0.  1.
</event>
<event>
 4    1  0.4944208E-021  0.5000050E+01  0.7818608E-02  0.2136455E+00
        -11   -1    0    0    0    0  0.00000000000E+00  0.00000000000E+00  0.50000499739E+01  0.50000500000E+01  0.51100000000E-03 0.  1.
         11   -1    0    0    0    0 -0.00000000000E+00 -0.00000000000E+00 -0.50000499739E+01  0.50000500000E+01  0.51100000000E-03 0. -1.
         50    1    1    2    0    0 -0.20499308684E-01 -0.58327395828E-02 -0.67646132514E-02  0.50000500000E+01  0.50000000000E+01 0. -1.
         50    1    1    2    0    0  0.20499308684E-01  0.58327395828E-02  0.67646132514E-02  0.50000500000E+01  0.50000000000E+01 0.  1.
</event>
<event>
 4    1  0.4944208E-021  0.5000050E+01  0.7818608E-02  0.2136455E+00
        -11   -1    0    0    0    0  0.00000000000E+00  0.00000000000E+00  0.50000499739E+01  0.50000500000E+01  0.51100000000E-03 0. -1.
         11   -1    0    0    0    0 -0.00000000000E+00 -0.00000000000E+00 -0.50000499739E+01  0.50000500000E+01  0.51100000000E-03 0.  1.
         50    1    1    2    0    0 -0.64960821282E-02  0.20229887757E-01  0.69681459749E-02  0.50000500000E+01  0.50000000000E+01 0. -1.
         50    1    1    2    0    0  0.64960821282E-02 -0.20229887757E-01 -0.69681459749E-02  0.50000500000E+01  0.50000000000E+01 0.  1.
</event>
<event>
 4    1  0.4944208E-021  0.5000050E+01  0.7818608E-02  0.2136455E+00
        -11   -1    0    0    0    0  0.00000000000E+00  0.00000000000E+00  0.50000499739E+01  0.50000500000E+01  0.51100000000E-03 0.  1.
         11   -1    0    0    0    0 -0.00000000000E+00 -0.00000000000E+00 -0.50000499739E+01  0.50000500000E+01  0.51100000000E-03 0. -1.
         50    1    1    2    0    0 -0.18603127469E-01  0.99931866906E-02 -0.73527116179E-02  0.50000500000E+01  0.50000000000E+01 0.  1.
         50    1    1    2    0    0  0.18603127469E-01 -0.99931866906E-02  0.73527116179E-02  0.50000500000E+01  0.50000000000E+01 0. -1.
</event>
<event>
 4    1  0.4944208E-021  0.5000050E+01  0.7818608E-02  0.2136455E+00
        -11   -1    0    0    0    0  0.00000000000E+00  0.00000000000E+00  0.50000499739E+01  0.50000500000E+01  0.51100000000E-03 0. -1.
         11   -1    0    0    0    0 -0.00000000000E+00 -0.00000000000E+00 -0.50000499739E+01  0.50000500000E+01  0.51100000000E-03 0.  1.
         50    1    1    2    0    0  0.58359818636E-02 -0.21568737402E-01  0.85637759474E-03  0.50000500000E+01  0.50000000000E+01 0. -1.
         50    1    1    2    0    0 -0.58359818636E-02  0.21568737402E-01 -0.85637759474E-03  0.50000500000E+01  0.50000000000E+01 0.  1.
</event>
<event>
 4    1  0.4944208E-021  0.5000050E+01  0.7818608E-02  0.2136455E+00
        -11   -1    0    0    0    0  0.00000000000E+00  0.00000000000E+00  0.50000499739E+01  0.50000500000E+01  0.51100000000E-03 0.  1.
         11   -1    0    0    0    0 -0.00000000000E+00 -0.00000000000E+00 -0.50000499739E+01  0.50000500000E+01  0.51100000000E-03 0. -1.
         50    1    1    2    0    0  0.12046274878E-01 -0.38053882272E-02 -0.18450170243E-01  0.50000500000E+01  0.50000000000E+01 0.  0.
         50    1    1    2    0    0 -0.12046274878E-01  0.38053882272E-02  0.18450170243E-01  0.50000500000E+01  0.50000000000E+01 0.  1.
</event>
<event>
 4    1  0.4944208E-021  0.5000050E+01  0.7818608E-02  0.2136455E+00
        -11   -1    0    0    0    0  0.00000000000E+00  0.00000000000E+00  0.50000499739E+01  0.50000500000E+01  0.51100000000E-03 0.  1.
         11   -1    0    0    0    0 -0.00000000000E+00 -0.00000000000E+00 -0.50000499739E+01  0.50000500000E+01  0.51100000000E-03 0. -1.
         50    1    1    2    0    0 -0.67192244239E-02  0.21282871859E-01  0.13761862367E-02  0.50000500000E+01  0.50000000000E+01 0.  0.
         50    1    1    2    0    0  0.67192244239E-02 -0.21282871859E-01 -0.13761862367E-02  0.50000500000E+01  0.50000000000E+01 0.  1.
</event>
<event>
 4    1  0.4944208E-021  0.5000050E+01  0.7818608E-02  0.2136455E+00
        -11   -1    0    0    0    0  0.00000000000E+00  0.00000000000E+00  0.50000499739E+01  0.50000500000E+01  0.51100000000E-03 0. -1.
         11   -1    0    0    0    0 -0.00000000000E+00 -0.00000000000E+00 -0.50000499739E+01  0.50000500000E+01  0.51100000000E-03 0.  1.
         50    1    1    2    0    0 -0.92677303780E-03 -0.17778364536E-01 -0.13530459939E-01  0.50000500000E+01  0.50000000000E+01 0.  1.
         50    1    1    2    0    0  0.92677303780E-03  0.17778364536E-01  0.13530459939E-01  0.50000500000E+01  0.50000000000E+01 0. -1.
</event>
<event>
 4    1  0.4944208E-021  0.5000050E+01  0.7818608E-02  0.2136455E+00
        -11   -1    0    0    0    0  0.00000000000E+00  0.00000000000E+00  0.50000499739E+01  0.50000500000E+01  0.51100000000E-03 0. -1.
         11   -1    0    0    0    0 -0.00000000000E+00 -0.00000000000E+00 -0.50000499739E+01  0.50000500000E+01  0.51100000000E-03 0.  1.
         50    1    1    2    0    0  0.41188774921E-02 -0.15308498501E-01 -0.15769819969E-01  0.50000500000E+01  0.50000000000E+01 0.  0.
         50    1    1    2    0    0 -0.41188774921E-02  0.15308498501E-01  0.15769819969E-01  0.50000500000E+01  0.50000000000E+01 0.  1.
</event>
<event>
 4    1  0.4944208E-021  0.5000050E+01  0.7818608E-02  0.2136455E+00
        -11   -1    0    0    0    0  0.00000000000E+00  0.00000000000E+00  0.50000499739E+01  0.50000500000E+01  0.51100000000E-03 0. -1.
         11   -1    0    0    0    0 -0.00000000000E+00 -0.00000000000E+00 -0.50000499739E+01  0.50000500000E+01  0.51100000000E-03 0.  1.
         50    1    1    2    0    0  0.13417498643E-01  0.42160860307E-02 -0.17383838723E-01  0.50000500000E+01  0.50000000000E+01 0.  1.
         50    1    1    2    0    0 -0.13417498643E-01 -0.42160860307E-02  0.17383838723E-01  0.50000500000E+01  0.50000000000E+01 0.  1.
</event>
<event>
 4    1  0.4944208E-021  0.5000050E+01  0.7818608E-02  0.2136455E+00
        -11   -1    0    0    0    0  0.00000000000E+00  0.00000000000E+00  0.50000499739E+01  0.50000500000E+01  0.51100000000E-03 0.  1.
         11   -1    0    0    0    0 -0.00000000000E+00 -0.00000000000E+00 -0.50000499739E+01  0.50000500000E+01  0.51100000000E-03 0. -1.
         50    1    1    2    0    0 -0.12217283499E-01  0.17182819501E-01  0.74492414304E-02  0.50000500000E+01  0.50000000000E+01 0.  1.
         50    1    1    2    0    0  0.12217283499E-01 -0.17182819501E-01 -0.74492414304E-02  0.50000500000E+01  0.50000000000E+01 0. -1.
</event>
<event>
 4    1  0.4944208E-021  0.5000050E+01  0.7818608E-02  0.2136455E+00
        -11   -1    0    0    0    0  0.00000000000E+00  0.00000000000E+00  0.50000499739E+01  0.50000500000E+01  0.51100000000E-03 0. -1.
         11   -1    0    0    0    0 -0.00000000000E+00 -0.00000000000E+00 -0.50000499739E+01  0.50000500000E+01  0.51100000000E-03 0.  1.
         50    1    1    2    0    0  0.10844581650E-01 -0.10342422787E-01 -0.16596139302E-01  0.50000500000E+01  0.50000000000E+01 0.  0.
         50    1    1    2    0    0 -0.10844581650E-01  0.10342422787E-01  0.16596139302E-01  0.50000500000E+01  0.50000000000E+01 0.  0.
</event>
<event>
 4    1  0.4944208E-021  0.5000050E+01  0.7818608E-02  0.2136455E+00
        -11   -1    0    0    0    0  0.00000000000E+00  0.00000000000E+00  0.50000499739E+01  0.50000500000E+01  0.51100000000E-03 0. -1.
         11   -1    0    0    0    0 -0.00000000000E+00 -0.00000000000E+00 -0.50000499739E+01  0.50000500000E+01  0.51100000000E-03 0.  1.
         50    1    1    2    0    0  0.16841311825E-01  0.18210592126E-03  0.14708485763E-01  0.50000500000E+01  0.50000000000E+01 0. -1.
         50    1    1    2    0    0 -0.16841311825E-01 -0.18210592126E-03 -0.14708485763E-01  0.50000500000E+01  0.50000000000E+01 0.  1.
</event>
<event>
 4    1  0.4944208E-021  0.5000050E+01  0.7818608E-02  0.2136455E+00
        -11   -1    0    0    0    0  0.00000000000E+00  0.00000000000E+00  0.50000499739E+01  0.50000500000E+01  0.51100000000E-03 0. -1.
         11   -1    0    0    0    0 -0.00000000000E+00 -0.00000000000E+00 -0.50000499739E+01  0.50000500000E+01  0.51100000000E-03 0.  1.
         50    1    1    2    0    0  0.37972792359E-02 -0.20999505640E-01 -0.66786176179E-02  0.50000500000E+01  0.50000000000E+01 0. -1.
         50    1    1    2    0    0 -0.37972792359E-02  0.20999505640E-01  0.66786176179E-02  0.50000500000E+01  0.50000000000E+01 0.  0.
</event>
<event>
 4    1  0.4944208E-021  0.5000050E+01  0.7818608E-02  0.2136455E+00
        -11   -1    0    0    0    0  0.00000000000E+00  0.00000000000E+00  0.50000499739E+01  0.50000500000E+01  0.51100000000E-03 0.  1.
         11   -1    0    0    0    0 -0.00000000000E+00 -0.00000000000E+00 -0.50000499739E+01  0.50000500000E+01  0.51100000000E-03 0. -1.
         50    1    1    2    0    0 -0.14064887056E-02 -0.21496444182E-01 -0.59939283502E-02  0.50000500000E+01  0.50000000000E+01 0. -1.
         50    1    1    2    0    0  0.14064887056E-02  0.21496444182E-01  0.59939283502E-02  0.50000500000E+01  0.50000000000E+01 0.  1.
</event>
<event>
 4    1  0.4944208E-021  0.5000050E+01  0.7818608E-02  0.2136455E+00
        -11   -1    0    0    0    0  0.00000000000E+00  0.00000000000E+00  0.50000499739E+01  0.50000500000E+01  0.51100000000E-03 0.  1.
         11   -1    0    0    0    0 -0.00000000000E+00 -0.00000000000E+00 -0.50000499739E+01  0.50000500000E+01  0.51100000000E-03 0. -1.
         50    1    1    2    0    0  0.97685058589E-02  0.16802838894E-01 -0.11056373654E-01  0.50000500000E+01  0.50000000000E+01 0. -1.
         50    1    1    2    0    0 -0.97685058589E-02 -0.16802838894E-01  0.11056373654E-01  0.50000500000E+01  0.50000000000E+01 0.  1.
</event>
<event>
 4    1  0.4944208E-021  0.5000050E+01  0.7818608E-02  0.2136455E+00
        -11   -1    0    0    0    0  0.00000000000E+00  0.00000000000E+00  0.50000499739E+01  0.50000500000E+01  0.51100000000E-03 0. -1.
         11   -1    0    0    0    0 -0.00000000000E+00 -0.00000000000E+00 -0.50000499739E+01  0.50000500000E+01  0.51100000000E-03 0.  1.
         50    1    1    2    0    0  0.10488783592E-02  0.13585403549E-01 -0.17729612646E-01  0.50000500000E+01  0.50000000000E+01 0.  0.
         50    1    1    2    0    0 -0.10488783592E-02 -0.13585403549E-01  0.17729612646E-01  0.50000500000E+01  0.50000000000E+01 0. -1.
</event>
<event>
 4    1  0.4944208E-021  0.5000050E+01  0.7818608E-02  0.2136455E+00
        -11   -1    0    0    0    0  0.00000000000E+00  0.00000000000E+00  0.50000499739E+01  0.50000500000E+01  0.51100000000E-03 0. -1.
         11   -1    0    0    0    0 -0.00000000000E+00 -0.00000000000E+00 -0.50000499739E+01  0.50000500000E+01  0.51100000000E-03 0.  1.
         50    1    1    2    0    0  0.62631072322E-02 -0.17720164251E-01  0.12114939814E-01  0.50000500000E+01  0.50000000000E+01 0. -1.
         50    1    1    2    0    0 -0.62631072322E-02  0.17720164251E-01 -0.12114939814E-01  0.50000500000E+01  0.50000000000E+01 0. -1.
</event>
<event>
 4    1  0.4944208E-021  0.5000050E+01  0.7818608E-02  0.2136455E+00
        -11   -1    0    0    0    0  0.00000000000E+00  0.00000000000E+00  0.50000499739E+01  0.50000500000E+01  0.51100000000E-03 0.  1.
         11   -1    0    0    0    0 -0.00000000000E+00 -0.00000000000E+00 -0.50000499739E+01  0.50000500000E+01  0.51100000000E-03 0. -1.
         50    1    1    2    0    0 -0.42948234708E-02 -0.12163615916E-01  0.18264814239E-01  0.50000500000E+01  0.50000000000E+01 0.  0.
         50    1    1    2    0    0  0.42948234708E-02  0.12163615916E-01 -0.18264814239E-01  0.50000500000E+01  0.50000000000E+01 0.  0.
</event>
<event>
 4    1  0.4944208E-021  0.5000050E+01  0.7818608E-02  0.2136455E+00
        -11   -1    0    0    0    0  0.00000000000E+00  0.00000000000E+00  0.50000499739E+01  0.50000500000E+01  0.51100000000E-03 0. -1.
         11   -1    0    0    0    0 -0.00000000000E+00 -0.00000000000E+00 -0.50000499739E+01  0.50000500000E+01  0.51100000000E-03 0.  1.
         50    1    1    2    0    0 -0.30895032280E-02 -0.11751238915E-01 -0.18771410542E-01  0.50000500000E+01  0.50000000000E+01 0.  0.
         50    1    1    2    0    0  0.30895032280E-02  0.11751238915E-01  0.18771410542E-01  0.50000500000E+01  0.50000000000E+01 0. -1.
</event>
<event>
 4    1  0.4944208E-021  0.5000050E+01  0.7818608E-02  0.2136455E+00
        -11   -1    0    0    0    0  0.00000000000E+00  0.00000000000E+00  0.50000499739E+01  0.50000500000E+01  0.51100000000E-03 0.  1.
         11   -1    0    0    0    0 -0.00000000000E+00 -0.00000000000E+00 -0.50000499739E+01  0.50000500000E+01  0.51100000000E-03 0. -1.
         50    1    1    2    0    0  0.17907613103E-01  0.27566263348E-02  0.13104232302E-01  0.50000500000E+01  0.50000000000E+01 0.  0.
         50    1    1    2    0    0 -0.17907613103E-01 -0.27566263348E-02 -0.13104232302E-01  0.50000500000E+01  0.50000000000E+01 0.  0.
</event>
<event>
 4    1  0.4944208E-021  0.5000050E+01  0.7818608E-02  0.2136455E+00
        -11   -1    0    0    0    0  0.00000000000E+00  0.00000000000E+00  0.50000499739E+01  0.50000500000E+01  0.51100000000E-03 0.  1.
         11   -1    0    0    0    0 -0.00000000000E+00 -0.00000000000E+00 -0.50000499739E+01  0.50000500000E+01  0.51100000000E-03 0. -1.
         50    1    1    2    0    0  0.38295389690E-02 -0.10405126230E-01 -0.19418302692E-01  0.50000500000E+01  0.50000000000E+01 0. -1.
         50    1    1    2    0    0 -0.38295389690E-02  0.10405126230E-01  0.19418302692E-01  0.50000500000E+01  0.50000000000E+01 0.  0.
</event>
<event>
 4    1  0.4944208E-021  0.5000050E+01  0.7818608E-02  0.2136455E+00
        -11   -1    0    0    0    0  0.00000000000E+00  0.00000000000E+00  0.50000499739E+01  0.50000500000E+01  0.51100000000E-03 0. -1.
         11   -1    0    0    0    0 -0.00000000000E+00 -0.00000000000E+00 -0.50000499739E+01  0.50000500000E+01  0.51100000000E-03 0.  1.
         50    1    1    2    0    0  0.17469913962E-01  0.43676790981E-02 -0.13256243263E-01  0.50000500000E+01  0.50000000000E+01 0.  1.
         50    1    1    2    0    0 -0.17469913962E-01 -0.43676790981E-02  0.13256243263E-01  0.50000500000E+01  0.50000000000E+01 0. -1.
</event>
<event>
 4    1  0.4944208E-021  0.5000050E+01  0.7818608E-02  0.2136455E+00
        -11   -1    0    0    0    0  0.00000000000E+00  0.00000000000E+00  0.50000499739E+01  0.50000500000E+01  0.51100000000E-03 0. -1.
         11   -1    0    0    0    0 -0.00000000000E+00 -0.00000000000E+00 -0.50000499739E+01  0.50000500000E+01  0.51100000000E-03 0.  1.
         50    1    1    2    0    0 -0.86119336303E-02 -0.89689519193E-02 -0.18584805638E-01  0.50000500000E+01  0.50000000000E+01 0.  0.
         50    1    1    2    0    0  0.86119336303E-02  0.89689519193E-02  0.18584805638E-01  0.50000500000E+01  0.50000000000E+01 0. -1.
</event>
<event>
 4    1  0.4944208E-021  0.5000050E+01  0.7818608E-02  0.2136455E+00
        -11   -1    0    0    0    0  0.00000000000E+00  0.00000000000E+00  0.50000499739E+01  0.50000500000E+01  0.51100000000E-03 0. -1.
         11   -1    0    0    0    0 -0.00000000000E+00 -0.00000000000E+00 -0.50000499739E+01  0.50000500000E+01  0.51100000000E-03 0.  1.
         50    1    1    2    0    0 -0.13771301490E-01  0.52104942481E-02  0.16828681022E-01  0.50000500000E+01  0.50000000000E+01 0.  0.
         50    1    1    2    0    0  0.13771301490E-01 -0.52104942481E-02 -0.16828681022E-01  0.50000500000E+01  0.50000000000E+01 0.  0.
</event>
<event>
 4    1  0.4944208E-021  0.5000050E+01  0.7818608E-02  0.2136455E+00
        -11   -1    0    0    0    0  0.00000000000E+00  0.00000000000E+00  0.50000499739E+01  0.50000500000E+01  0.51100000000E-03 0.  1.
         11   -1    0    0    0    0 -0.00000000000E+00 -0.00000000000E+00 -0.50000499739E+01  0.50000500000E+01  0.51100000000E-03 0. -1.
         50    1    1    2    0    0 -0.12489044263E-01 -0.18196980536E-01  0.35911241613E-02  0.50000500000E+01  0.50000000000E+01 0. -1.
         50    1    1    2    0    0  0.12489044263E-01  0.18196980536E-01 -0.35911241613E-02  0.50000500000E+01  0.50000000000E+01 0.  1.
</event>
<event>
 4    1  0.4944208E-021  0.5000050E+01  0.7818608E-02  0.2136455E+00
        -11   -1    0    0    0    0  0.00000000000E+00  0.00000000000E+00  0.50000499739E+01  0.50000500000E+01  0.51100000000E-03 0.  1.
         11   -1    0    0    0    0 -0.00000000000E+00 -0.00000000000E+00 -0.50000499739E+01  0.50000500000E+01  0.51100000000E-03 0. -1.
         50    1    1    2    0    0 -0.10162924126E-01 -0.19878418694E-01 -0.12513766110E-02  0.50000500000E+01  0.50000000000E+01 0.  1.
         50    1    1    2    0    0  0.10162924126E-01  0.19878418694E-01  0.12513766110E-02  0.50000500000E+01  0.50000000000E+01 0. -1.
</event>
<event>
 4    1  0.4944208E-021  0.5000050E+01  0.7818608E-02  0.2136455E+00
        -11   -1    0    0    0    0  0.00000000000E+00  0.00000000000E+00  0.50000499739E+01  0.50000500000E+01  0.51100000000E-03 0. -1.
         11   -1    0    0    0    0 -0.00000000000E+00 -0.00000000000E+00 -0.50000499739E+01  0.50000500000E+01  0.51100000000E-03 0.  1.
         50    1    1    2    0    0  0.12465140176E-01 -0.13511674343E-01 -0.12730178193E-01  0.50000500000E+01  0.50000000000E+01 0.  0.
         50    1    1    2    0    0 -0.12465140176E-01  0.13511674343E-01  0.12730178193E-01  0.50000500000E+01  0.50000000000E+01 0.  1.
</event>
<event>
 4    1  0.4944208E-021  0.5000050E+01  0.7818608E-02  0.2136455E+00
        -11   -1    0    0    0    0  0.00000000000E+00  0.00000000000E+00  0.50000499739E+01  0.50000500000E+01  0.51100000000E-03 0. -1.
         11   -1    0    0    0    0 -0.00000000000E+00 -0.00000000000E+00 -0.50000499739E+01  0.50000500000E+01  0.51100000000E-03 0.  1.
         50    1    1    2    0    0  0.15542300059E-01 -0.24511999821E-02  0.15888078157E-01  0.50000500000E+01  0.50000000000E+01 0. -1.
         50    1    1    2    0    0 -0.15542300059E-01  0.24511999821E-02 -0.15888078157E-01  0.50000500000E+01  0.50000000000E+01 0.  1.
</event>
<event>
 4    1  0.4944208E-021  0.5000050E+01  0.7818608E-02  0.2136455E+00
        -11   -1    0    0    0    0  0.00000000000E+00  0.00000000000E+00  0.50000499739E+01  0.50000500000E+01  0.51100000000E-03 0.  1.
         11   -1    0    0    0    0 -0.00000000000E+00 -0.00000000000E+00 -0.50000499739E+01  0.50000500000E+01  0.51100000000E-03 0. -1.
         50    1    1    2    0    0 -0.17081287843E-01  0.14039958151E-01  0.33334187780E-02  0.50000500000E+01  0.50000000000E+01 0.  1.
         50    1    1    2    0    0  0.17081287843E-01 -0.14039958151E-01 -0.33334187780E-02  0.50000500000E+01  0.50000000000E+01 0. -1.
</event>
<event>
 4    1  0.4944208E-021  0.5000050E+01  0.7818608E-02  0.2136455E+00
        -11   -1    0    0    0    0  0.00000000000E+00  0.00000000000E+00  0.50000499739E+01  0.50000500000E+01  0.51100000000E-03 0.  1.
         11   -1    0    0    0    0 -0.00000000000E+00 -0.00000000000E+00 -0.50000499739E+01  0.50000500000E+01  0.51100000000E-03 0. -1.
         50    1    1    2    0    0 -0.18533294596E-01 -0.11886921102E-01  0.39013584983E-02  0.50000500000E+01  0.50000000000E+01 0. -1.
         50    1    1    2    0    0  0.18533294596E-01  0.11886921102E-01 -0.39013584983E-02  0.50000500000E+01  0.50000000000E+01 0.  0.
</event>
<event>
 4    1  0.4944208E-021  0.5000050E+01  0.7818608E-02  0.2136455E+00
        -11   -1    0    0    0    0  0.00000000000E+00  0.00000000000E+00  0.50000499739E+01  0.50000500000E+01  0.51100000000E-03 0.  1.
         11   -1    0    0    0    0 -0.00000000000E+00 -0.00000000000E+00 -0.50000499739E+01  0.50000500000E+01  0.51100000000E-03 0. -1.
         50    1    1    2    0    0  0.20305716035E-01  0.83609832171E-02 -0.42159644166E-02  0.50000500000E+01  0.50000000000E+01 0.  0.
         50    1    1    2    0    0 -0.20305716035E-01 -0.83609832171E-02  0.42159644166E-02  0.50000500000E+01  0.50000000000E+01 0.  1.
</event>
<event>
 4    1  0.4944208E-021  0.5000050E+01  0.7818608E-02  0.2136455E+00
        -11   -1    0    0    0    0  0.00000000000E+00  0.00000000000E+00  0.50000499739E+01  0.50000500000E+01  0.51100000000E-03 0.  1.
         11   -1    0    0    0    0 -0.00000000000E+00 -0.00000000000E+00 -0.50000499739E+01  0.50000500000E+01  0.51100000000E-03 0. -1.
         50    1    1    2    0    0 -0.35366001510E-02  0.47682078680E-02  0.21558273426E-01  0.50000500000E+01  0.50000000000E+01 0.  1.
         50    1    1    2    0    0  0.35366001510E-02 -0.47682078680E-02 -0.21558273426E-01  0.50000500000E+01  0.50000000000E+01 0.  0.
</event>
<event>
 4    1  0.4944208E-021  0.5000050E+01  0.7818608E-02  0.2136455E+00
        -11   -1    0    0    0    0  0.00000000000E+00  0.00000000000E+00  0.50000499739E+01  0.50000500000E+01  0.51100000000E-03 0.  1.
         11   -1    0    0    0    0 -0.00000000000E+00 -0.00000000000E+00 -0.50000499739E+01  0.50000500000E+01  0.51100000000E-03 0. -1.
         50    1    1    2    0    0 -0.63318199475E-02 -0.21445482355E-01 -0.42926708423E-04  0.50000500000E+01  0.50000000000E+01 0. -1.
         50    1    1    2    0    0  0.63318199475E-02  0.21445482355E-01  0.42926708423E-04  0.50000500000E+01  0.50000000000E+01 0.  1.
</event>
<event>
 4    1  0.4944208E-021  0.5000050E+01  0.7818608E-02  0.2136455E+00
        -11   -1    0    0    0    0  0.00000000000E+00  0.00000000000E+00  0.50000499739E+01  0.50000500000E+01  0.51100000000E-03 0.  1.
         11   -1    0    0    0    0 -0.00000000000E+00 -0.00000000000E+00 -0.50000499739E+01  0.50000500000E+01  0.51100000000E-03 0. -1.
         50    1    1    2    0    0  0.88000968122E-02 -0.65809849850E-02 -0.19474378879E-01  0.50000500000E+01  0.50000000000E+01 0. -1.
         50    1    1    2    0    0 -0.88000968122E-02  0.65809849850E-02  0.19474378879E-01  0.50000500000E+01  0.50000000000E+01 0.  1.
</event>
<event>
 4    1  0.4944208E-021  0.5000050E+01  0.7818608E-02  0.2136455E+00
        -11   -1    0    0    0    0  0.00000000000E+00  0.00000000000E+00  0.50000499739E+01  0.50000500000E+01  0.51100000000E-03 0.  1.
         11   -1    0    0    0    0 -0.00000000000E+00 -0.00000000000E+00 -0.50000499739E+01  0.50000500000E+01  0.51100000000E-03 0. -1.
         50    1    1    2    0    0 -0.75828558932E-02 -0.13558363924E-01 -0.16083331875E-01  0.50000500000E+01  0.50000000000E+01 0. -1.
         50    1    1    2    0    0  0.75828558932E-02  0.13558363924E-01  0.16083331875E-01  0.50000500000E+01  0.50000000000E+01 0.  1.
</event>
<event>
 4    1  0.4944208E-021  0.5000050E+01  0.7818608E-02  0.2136455E+00
        -11   -1    0    0    0    0  0.00000000000E+00  0.00000000000E+00  0.50000499739E+01  0.50000500000E+01  0.51100000000E-03 0. -1.
         11   -1    0    0    0    0 -0.00000000000E+00 -0.00000000000E+00 -0.50000499739E+01  0.50000500000E+01  0.51100000000E-03 0.  1.
         50    1    1    2    0    0  0.86517865462E-02 -0.16690860457E-01  0.12106372981E-01  0.50000500000E+01  0.50000000000E+01 0.  1.
         50    1    1    2    0    0 -0.86517865462E-02  0.16690860457E-01 -0.12106372981E-01  0.50000500000E+01  0.50000000000E+01 0.  0.
</event>
<event>
 4    1  0.4944208E-021  0.5000050E+01  0.7818608E-02  0.2136455E+00
        -11   -1    0    0    0    0  0.00000000000E+00  0.00000000000E+00  0.50000499739E+01  0.50000500000E+01  0.51100000000E-03 0. -1.
         11   -1    0    0    0    0 -0.00000000000E+00 -0.00000000000E+00 -0.50000499739E+01  0.50000500000E+01  0.51100000000E-03 0.  1.
         50    1    1    2    0    0 -0.22025602248E-02  0.79251004918E-02  0.20792883654E-01  0.50000500000E+01  0.50000000000E+01 0.  0.
         50    1    1    2    0    0  0.22025602248E-02 -0.79251004918E-02 -0.20792883654E-01  0.50000500000E+01  0.50000000000E+01 0. -1.
</event>
<event>
 4    1  0.4944208E-021  0.5000050E+01  0.7818608E-02  0.2136455E+00
        -11   -1    0    0    0    0  0.00000000000E+00  0.00000000000E+00  0.50000499739E+01  0.50000500000E+01  0.51100000000E-03 0.  1.
         11   -1    0    0    0    0 -0.00000000000E+00 -0.00000000000E+00 -0.50000499739E+01  0.50000500000E+01  0.51100000000E-03 0. -1.
         50    1    1    2    0    0 -0.24135513946E-02  0.20930668517E-01 -0.74889508665E-02  0.50000500000E+01  0.50000000000E+01 0. -1.
         50    1    1    2    0    0  0.24135513946E-02 -0.20930668517E-01  0.74889508665E-02  0.50000500000E+01  0.50000000000E+01 0.  1.
</event>
<event>
 4    1  0.4944208E-021  0.5000050E+01  0.7818608E-02  0.2136455E+00
        -11   -1    0    0    0    0  0.00000000000E+00  0.00000000000E+00  0.50000499739E+01  0.50000500000E+01  0.51100000000E-03 0.  1.
         11   -1    0    0    0    0 -0.00000000000E+00 -0.00000000000E+00 -0.50000499739E+01  0.50000500000E+01  0.51100000000E-03 0. -1.
         50    1    1    2    0    0  0.50572228825E-02  0.16037354164E-01  0.14738733601E-01  0.50000500000E+01  0.50000000000E+01 0. -1.
         50    1    1    2    0    0 -0.50572228825E-02 -0.16037354164E-01 -0.14738733601E-01  0.50000500000E+01  0.50000000000E+01 0.  0.
</event>
<event>
 4    1  0.4944208E-021  0.5000050E+01  0.7818608E-02  0.2136455E+00
        -11   -1    0    0    0    0  0.00000000000E+00  0.00000000000E+00  0.50000499739E+01  0.50000500000E+01  0.51100000000E-03 0.  1.
         11   -1    0    0    0    0 -0.00000000000E+00 -0.00000000000E+00 -0.50000499739E+01  0.50000500000E+01  0.51100000000E-03 0. -1.
         50    1    1    2    0    0 -0.79575918442E-03 -0.57864810147E-02 -0.21584390304E-01  0.50000500000E+01  0.50000000000E+01 0. -1.
         50    1    1    2    0    0  0.79575918442E-03  0.57864810147E-02  0.21584390304E-01  0.50000500000E+01  0.50000000000E+01 0.  1.
</event>
<event>
 4    1  0.4944208E-021  0.5000050E+01  0.7818608E-02  0.2136455E+00
        -11   -1    0    0    0    0  0.00000000000E+00  0.00000000000E+00  0.50000499739E+01  0.50000500000E+01  0.51100000000E-03 0. -1.
         11   -1    0    0    0    0 -0.00000000000E+00 -0.00000000000E+00 -0.50000499739E+01  0.50000500000E+01  0.51100000000E-03 0.  1.
         50    1    1    2    0    0 -0.20495563854E-01 -0.23108544743E-02 -0.86367999807E-02  0.50000500000E+01  0.50000000000E+01 0.  0.
         50    1    1    2    0    0  0.20495563854E-01  0.23108544743E-02  0.86367999807E-02  0.50000500000E+01  0.50000000000E+01 0.  0.
</event>
<event>
 4    1  0.4944208E-021  0.5000050E+01  0.7818608E-02  0.2136455E+00
        -11   -1    0    0    0    0  0.00000000000E+00  0.00000000000E+00  0.50000499739E+01  0.50000500000E+01  0.51100000000E-03 0. -1.
         11   -1    0    0    0    0 -0.00000000000E+00 -0.00000000000E+00 -0.50000499739E+01  0.50000500000E+01  0.51100000000E-03 0.  1.
         50    1    1    2    0    0  0.84925134896E-02 -0.19784344946E-01  0.60381627734E-02  0.50000500000E+01  0.50000000000E+01 0. -1.
         50    1    1    2    0    0 -0.84925134896E-02  0.19784344946E-01 -0.60381627734E-02  0.50000500000E+01  0.50000000000E+01 0.  1.
</event>
<event>
 4    1  0.4944208E-021  0.5000050E+01  0.7818608E-02  0.2136455E+00
        -11   -1    0    0    0    0  0.00000000000E+00  0.00000000000E+00  0.50000499739E+01  0.50000500000E+01  0.51100000000E-03 0. -1.
         11   -1    0    0    0    0 -0.00000000000E+00 -0.00000000000E+00 -0.50000499739E+01  0.50000500000E+01  0.51100000000E-03 0.  1.
         50    1    1    2    0    0  0.20299246625E-01 -0.75744642590E-02 -0.55290666148E-02  0.50000500000E+01  0.50000000000E+01 0. -1.
         50    1    1    2    0    0 -0.20299246625E-01  0.75744642590E-02  0.55290666148E-02  0.50000500000E+01  0.50000000000E+01 0.  1.
</event>
<event>
 4    1  0.4944208E-021  0.5000050E+01  0.7818608E-02  0.2136455E+00
        -11   -1    0    0    0    0  0.00000000000E+00  0.00000000000E+00  0.50000499739E+01  0.50000500000E+01  0.51100000000E-03 0.  1.
         11   -1    0    0    0    0 -0.00000000000E+00 -0.00000000000E+00 -0.50000499739E+01  0.50000500000E+01  0.51100000000E-03 0. -1.
         50    1    1    2    0    0  0.14253958141E-01  0.71979459166E-02  0.15653010953E-01  0.50000500000E+01  0.50000000000E+01 0.  0.
         50    1    1    2    0    0 -0.14253958141E-01 -0.71979459166E-02 -0.15653010953E-01  0.50000500000E+01  0.50000000000E+01 0.  0.
</event>
<event>
 4    1  0.4944208E-021  0.5000050E+01  0.7818608E-02  0.2136455E+00
        -11   -1    0    0    0    0  0.00000000000E+00  0.00000000000E+00  0.50000499739E+01  0.50000500000E+01  0.51100000000E-03 0.  1.
         11   -1    0    0    0    0 -0.00000000000E+00 -0.00000000000E+00 -0.50000499739E+01  0.50000500000E+01  0.51100000000E-03 0. -1.
         50    1    1    2    0    0 -0.99711904667E-02  0.15494259347E-01 -0.12669087890E-01  0.50000500000E+01  0.50000000000E+01 0.  0.
         50    1    1    2    0    0  0.99711904667E-02 -0.15494259347E-01  0.12669087890E-01  0.50000500000E+01  0.50000000000E+01 0. -1.
</event>
<event>
 4    1  0.4944208E-021  0.5000050E+01  0.7818608E-02  0.2136455E+00
        -11   -1    0    0    0    0  0.00000000000E+00  0.00000000000E+00  0.50000499739E+01  0.50000500000E+01  0.51100000000E-03 0. -1.
         11   -1    0    0    0    0 -0.00000000000E+00 -0.00000000000E+00 -0.50000499739E+01  0.50000500000E+01  0.51100000000E-03 0.  1.
         50    1    1    2    0    0 -0.14559971988E-01 -0.13318616438E-01 -0.10517802617E-01  0.50000500000E+01  0.50000000000E+01 0. -1.
         50    1    1    2    0    0  0.14559971988E-01  0.13318616438E-01  0.10517802617E-01  0.50000500000E+01  0.50000000000E+01 0.  0.
</event>
<event>
 4    1  0.4944208E-021  0.5000050E+01  0.7818608E-02  0.2136455E+00
        -11   -1    0    0    0    0  0.00000000000E+00  0.00000000000E+00  0.50000499739E+01  0.50000500000E+01  0.51100000000E-03 0. -1.
         11   -1    0    0    0    0 -0.00000000000E+00 -0.00000000000E+00 -0.50000499739E+01  0.50000500000E+01  0.51100000000E-03 0.  1.
         50    1    1    2    0    0  0.20831785346E-02  0.10872399719E-01 -0.19428170051E-01  0.50000500000E+01  0.50000000000E+01 0.  1.
         50    1    1    2    0    0 -0.20831785346E-02 -0.10872399719E-01  0.19428170051E-01  0.50000500000E+01  0.50000000000E+01 0. -1.
</event>
<event>
 4    1  0.4944208E-021  0.5000050E+01  0.7818608E-02  0.2136455E+00
        -11   -1    0    0    0    0  0.00000000000E+00  0.00000000000E+00  0.50000499739E+01  0.50000500000E+01  0.51100000000E-03 0.  1.
         11   -1    0    0    0    0 -0.00000000000E+00 -0.00000000000E+00 -0.50000499739E+01  0.50000500000E+01  0.51100000000E-03 0. -1.
         50    1    1    2    0    0 -0.15736758066E-01  0.10677122896E-01  0.11762482401E-01  0.50000500000E+01  0.50000000000E+01 0.  1.
         50    1    1    2    0    0  0.15736758066E-01 -0.10677122896E-01 -0.11762482401E-01  0.50000500000E+01  0.50000000000E+01 0. -1.
</event>
<event>
 4    1  0.4944208E-021  0.5000050E+01  0.7818608E-02  0.2136455E+00
        -11   -1    0    0    0    0  0.00000000000E+00  0.00000000000E+00  0.50000499739E+01  0.50000500000E+01  0.51100000000E-03 0.  1.
         11   -1    0    0    0    0 -0.00000000000E+00 -0.00000000000E+00 -0.50000499739E+01  0.50000500000E+01  0.51100000000E-03 0. -1.
         50    1    1    2    0    0 -0.17463926566E-01 -0.12515422856E-01 -0.61949947236E-02  0.50000500000E+01  0.50000000000E+01 0. -1.
         50    1    1    2    0    0  0.17463926566E-01  0.12515422856E-01  0.61949947236E-02  0.50000500000E+01  0.50000000000E+01 0.  1.
</event>
<event>
 4    1  0.4944208E-021  0.5000050E+01  0.7818608E-02  0.2136455E+00
        -11   -1    0    0    0    0  0.00000000000E+00  0.00000000000E+00  0.50000499739E+01  0.50000500000E+01  0.51100000000E-03 0. -1.
         11   -1    0    0    0    0 -0.00000000000E+00 -0.00000000000E+00 -0.50000499739E+01  0.50000500000E+01  0.51100000000E-03 0.  1.
         50    1    1    2    0    0 -0.26681428905E-02  0.15376223454E-01  0.16014220737E-01  0.50000500000E+01  0.50000000000E+01 0. -1.
         50    1    1    2    0    0  0.26681428905E-02 -0.15376223454E-01 -0.16014220737E-01  0.50000500000E+01  0.50000000000E+01 0.  1.
</event>
<event>
 4    1  0.4944208E-021  0.5000050E+01  0.7818608E-02  0.2136455E+00
        -11   -1    0    0    0    0  0.00000000000E+00  0.00000000000E+00  0.50000499739E+01  0.50000500000E+01  0.51100000000E-03 0.  1.
         11   -1    0    0    0    0 -0.00000000000E+00 -0.00000000000E+00 -0.50000499739E+01  0.50000500000E+01  0.51100000000E-03 0. -1.
         50    1    1    2    0    0 -0.95835364298E-02 -0.13202588810E-01  0.15292154139E-01  0.50000500000E+01  0.50000000000E+01 0.  0.
         50    1    1    2    0    0  0.95835364298E-02  0.13202588810E-01 -0.15292154139E-01  0.50000500000E+01  0.50000000000E+01 0.  1.
</event>
<event>
 4    1  0.4944208E-021  0.5000050E+01  0.7818608E-02  0.2136455E+00
        -11   -1    0    0    0    0  0.00000000000E+00  0.00000000000E+00  0.50000499739E+01  0.50000500000E+01  0.51100000000E-03 0.  1.
         11   -1    0    0    0    0 -0.00000000000E+00 -0.00000000000E+00 -0.50000499739E+01  0.50000500000E+01  0.51100000000E-03 0. -1.
         50    1    1    2    0    0 -0.14148761102E-01 -0.19998564664E-02 -0.17199291654E-01  0.50000500000E+01  0.50000000000E+01 0. -1.
         50    1    1    2    0    0  0.14148761102E-01  0.19998564664E-02  0.17199291654E-01  0.50000500000E+01  0.50000000000E+01 0. -1.
</event>
<event>
 4    1  0.4944208E-021  0.5000050E+01  0.7818608E-02  0.2136455E+00
        -11   -1    0    0    0    0  0.00000000000E+00  0.00000000000E+00  0.50000499739E+01  0.50000500000E+01  0.51100000000E-03 0. -1.
         11   -1    0    0    0    0 -0.00000000000E+00 -0.00000000000E+00 -0.50000499739E+01  0.50000500000E+01  0.51100000000E-03 0.  1.
         50    1    1    2    0    0  0.11356401336E-01 -0.17137489802E-01 -0.87943784314E-02  0.50000500000E+01  0.50000000000E+01 0. -1.
         50    1    1    2    0    0 -0.11356401336E-01  0.17137489802E-01  0.87943784314E-02  0.50000500000E+01  0.50000000000E+01 0.  0.
</event>
<event>
 4    1  0.4944208E-021  0.5000050E+01  0.7818608E-02  0.2136455E+00
        -11   -1    0    0    0    0  0.00000000000E+00  0.00000000000E+00  0.50000499739E+01  0.50000500000E+01  0.51100000000E-03 0.  1.
         11   -1    0    0    0    0 -0.00000000000E+00 -0.00000000000E+00 -0.50000499739E+01  0.50000500000E+01  0.51100000000E-03 0. -1.
         50    1    1    2    0    0  0.72228194465E-02  0.15640837195E-01  0.14254739250E-01  0.50000500000E+01  0.50000000000E+01 0.  1.
         50    1    1    2    0    0 -0.72228194465E-02 -0.15640837195E-01 -0.14254739250E-01  0.50000500000E+01  0.50000000000E+01 0.  1.
</event>
<event>
 4    1  0.4944208E-021  0.5000050E+01  0.7818608E-02  0.2136455E+00
        -11   -1    0    0    0    0  0.00000000000E+00  0.00000000000E+00  0.50000499739E+01  0.50000500000E+01  0.51100000000E-03 0. -1.
         11   -1    0    0    0    0 -0.00000000000E+00 -0.00000000000E+00 -0.50000499739E+01  0.50000500000E+01  0.51100000000E-03 0.  1.
         50    1    1    2    0    0  0.11471430467E-01 -0.69616142993E-02  0.17886998333E-01  0.50000500000E+01  0.50000000000E+01 0. -1.
         50    1    1    2    0    0 -0.11471430467E-01  0.69616142993E-02 -0.17886998333E-01  0.50000500000E+01  0.50000000000E+01 0.  0.
</event>
<event>
 4    1  0.4944208E-021  0.5000050E+01  0.7818608E-02  0.2136455E+00
        -11   -1    0    0    0    0  0.00000000000E+00  0.00000000000E+00  0.50000499739E+01  0.50000500000E+01  0.51100000000E-03 0. -1.
         11   -1    0    0    0    0 -0.00000000000E+00 -0.00000000000E+00 -0.50000499739E+01  0.50000500000E+01  0.51100000000E-03 0.  1.
         50    1    1    2    0    0  0.13152592106E-01 -0.50938308083E-02  0.17351216343E-01  0.50000500000E+01  0.50000000000E+01 0. -1.
         50    1    1    2    0    0 -0.13152592106E-01  0.50938308083E-02 -0.17351216343E-01  0.50000500000E+01  0.50000000000E+01 0.  0.
</event>
<event>
 4    1  0.4944208E-021  0.5000050E+01  0.7818608E-02  0.2136455E+00
        -11   -1    0    0    0    0  0.00000000000E+00  0.00000000000E+00  0.50000499739E+01  0.50000500000E+01  0.51100000000E-03 0.  1.
         11   -1    0    0    0    0 -0.00000000000E+00 -0.00000000000E+00 -0.50000499739E+01  0.50000500000E+01  0.51100000000E-03 0. -1.
         50    1    1    2    0    0 -0.53485074629E-02 -0.29025641138E-02 -0.21516762988E-01  0.50000500000E+01  0.50000000000E+01 0. -1.
         50    1    1    2    0    0  0.53485074629E-02  0.29025641138E-02  0.21516762988E-01  0.50000500000E+01  0.50000000000E+01 0.  0.
</event>
<event>
 4    1  0.4944208E-021  0.5000050E+01  0.7818608E-02  0.2136455E+00
        -11   -1    0    0    0    0  0.00000000000E+00  0.00000000000E+00  0.50000499739E+01  0.50000500000E+01  0.51100000000E-03 0.  1.
         11   -1    0    0    0    0 -0.00000000000E+00 -0.00000000000E+00 -0.50000499739E+01  0.50000500000E+01  0.51100000000E-03 0. -1.
         50    1    1    2    0    0  0.28246579558E-02 -0.22116093536E-01  0.17035886047E-02  0.50000500000E+01  0.50000000000E+01 0. -1.
         50    1    1    2    0    0 -0.28246579558E-02  0.22116093536E-01 -0.17035886047E-02  0.50000500000E+01  0.50000000000E+01 0.  1.
</event>
<event>
 4    1  0.4944208E-021  0.5000050E+01  0.7818608E-02  0.2136455E+00
        -11   -1    0    0    0    0  0.00000000000E+00  0.00000000000E+00  0.50000499739E+01  0.50000500000E+01  0.51100000000E-03 0.  1.
         11   -1    0    0    0    0 -0.00000000000E+00 -0.00000000000E+00 -0.50000499739E+01  0.50000500000E+01  0.51100000000E-03 0. -1.
         50    1    1    2    0    0  0.11656562095E-01  0.19073077534E-01 -0.58717418505E-03  0.50000500000E+01  0.50000000000E+01 0.  1.
         50    1    1    2    0    0 -0.11656562095E-01 -0.19073077534E-01  0.58717418505E-03  0.50000500000E+01  0.50000000000E+01 0. -1.
</event>
<event>
 4    1  0.4944208E-021  0.5000050E+01  0.7818608E-02  0.2136455E+00
        -11   -1    0    0    0    0  0.00000000000E+00  0.00000000000E+00  0.50000499739E+01  0.50000500000E+01  0.51100000000E-03 0. -1.
         11   -1    0    0    0    0 -0.00000000000E+00 -0.00000000000E+00 -0.50000499739E+01  0.50000500000E+01  0.51100000000E-03 0.  1.
         50    1    1    2    0    0  0.12025068644E-01 -0.56195274538E-02 -0.17995030850E-01  0.50000500000E+01  0.50000000000E+01 0.  1.
         50    1    1    2    0    0 -0.12025068644E-01  0.56195274538E-02  0.17995030850E-01  0.50000500000E+01  0.50000000000E+01 0.  0.
</event>
<event>
 4    1  0.4944208E-021  0.5000050E+01  0.7818608E-02  0.2136455E+00
        -11   -1    0    0    0    0  0.00000000000E+00  0.00000000000E+00  0.50000499739E+01  0.50000500000E+01  0.51100000000E-03 0. -1.
         11   -1    0    0    0    0 -0.00000000000E+00 -0.00000000000E+00 -0.50000499739E+01  0.50000500000E+01  0.51100000000E-03 0.  1.
         50    1    1    2    0    0  0.19671686393E-02  0.12685989390E-01 -0.18308424857E-01  0.50000500000E+01  0.50000000000E+01 0.  0.
         50    1    1    2    0    0 -0.19671686393E-02 -0.12685989390E-01  0.18308424857E-01  0.50000500000E+01  0.50000000000E+01 0. -1.
</event>
<event>
 4    1  0.4944208E-021  0.5000050E+01  0.7818608E-02  0.2136455E+00
        -11   -1    0    0    0    0  0.00000000000E+00  0.00000000000E+00  0.50000499739E+01  0.50000500000E+01  0.51100000000E-03 0.  1.
         11   -1    0    0    0    0 -0.00000000000E+00 -0.00000000000E+00 -0.50000499739E+01  0.50000500000E+01  0.51100000000E-03 0. -1.
         50    1    1    2    0    0 -0.11203713313E-01 -0.18169258414E-01  0.66601318824E-02  0.50000500000E+01  0.50000000000E+01 0.  1.
         50    1    1    2    0    0  0.11203713313E-01  0.18169258414E-01 -0.66601318824E-02  0.50000500000E+01  0.50000000000E+01 0. -1.
</event>
<event>
 4    1  0.4944208E-021  0.5000050E+01  0.7818608E-02  0.2136455E+00
        -11   -1    0    0    0    0  0.00000000000E+00  0.00000000000E+00  0.50000499739E+01  0.50000500000E+01  0.51100000000E-03 0.  1.
         11   -1    0    0    0    0 -0.00000000000E+00 -0.00000000000E+00 -0.50000499739E+01  0.50000500000E+01  0.51100000000E-03 0. -1.
         50    1    1    2    0    0  0.15403481174E-01  0.16132127724E-01  0.15778855481E-02  0.50000500000E+01  0.50000000000E+01 0. -1.
         50    1    1    2    0    0 -0.15403481174E-01 -0.16132127724E-01 -0.15778855481E-02  0.50000500000E+01  0.50000000000E+01 0.  0.
</event>
<event>
 4    1  0.4944208E-021  0.5000050E+01  0.7818608E-02  0.2136455E+00
        -11   -1    0    0    0    0  0.00000000000E+00  0.00000000000E+00  0.50000499739E+01  0.50000500000E+01  0.51100000000E-03 0.  1.
         11   -1    0    0    0    0 -0.00000000000E+00 -0.00000000000E+00 -0.50000499739E+01  0.50000500000E+01  0.51100000000E-03 0. -1.
         50    1    1    2    0    0 -0.17629401572E-01 -0.92328411985E-02  0.10196143565E-01  0.50000500000E+01  0.50000000000E+01 0.  0.
         50    1    1    2    0    0  0.17629401572E-01  0.92328411985E-02 -0.10196143565E-01  0.50000500000E+01  0.50000000000E+01 0.  0.
</event>
<event>
 4    1  0.4944208E-021  0.5000050E+01  0.7818608E-02  0.2136455E+00
        -11   -1    0    0    0    0  0.00000000000E+00  0.00000000000E+00  0.50000499739E+01  0.50000500000E+01  0.51100000000E-03 0.  1.
         11   -1    0    0    0    0 -0.00000000000E+00 -0.00000000000E+00 -0.50000499739E+01  0.50000500000E+01  0.51100000000E-03 0. -1.
         50    1    1    2    0    0  0.15060940559E-01  0.80621937760E-02  0.14428153070E-01  0.50000500000E+01  0.50000000000E+01 0.  0.
         50    1    1    2    0    0 -0.15060940559E-01 -0.80621937760E-02 -0.14428153070E-01  0.50000500000E+01  0.50000000000E+01 0.  0.
</event>
<event>
 4    1  0.4944208E-021  0.5000050E+01  0.7818608E-02  0.2136455E+00
        -11   -1    0    0    0    0  0.00000000000E+00  0.00000000000E+00  0.50000499739E+01  0.50000500000E+01  0.51100000000E-03 0. -1.
         11   -1    0    0    0    0 -0.00000000000E+00 -0.00000000000E+00 -0.50000499739E+01  0.50000500000E+01  0.51100000000E-03 0.  1.
         50    1    1    2    0    0  0.27291034065E-02 -0.20930366075E-01 -0.73806687081E-02  0.50000500000E+01  0.50000000000E+01 0.  1.
         50    1    1    2    0    0 -0.27291034065E-02  0.20930366075E-01  0.73806687081E-02  0.50000500000E+01  0.50000000000E+01 0. -1.
</event>
<event>
 4    1  0.4944208E-021  0.5000050E+01  0.7818608E-02  0.2136455E+00
        -11   -1    0    0    0    0  0.00000000000E+00  0.00000000000E+00  0.50000499739E+01  0.50000500000E+01  0.51100000000E-03 0.  1.
         11   -1    0    0    0    0 -0.00000000000E+00 -0.00000000000E+00 -0.50000499739E+01  0.50000500000E+01  0.51100000000E-03 0. -1.
         50    1    1    2    0    0 -0.76678342910E-02  0.33326898919E-02  0.20738852316E-01  0.50000500000E+01  0.50000000000E+01 0.  1.
         50    1    1    2    0    0  0.76678342910E-02 -0.33326898919E-02 -0.20738852316E-01  0.50000500000E+01  0.50000000000E+01 0.  0.
</event>
<event>
 4    1  0.4944208E-021  0.5000050E+01  0.7818608E-02  0.2136455E+00
        -11   -1    0    0    0    0  0.00000000000E+00  0.00000000000E+00  0.50000499739E+01  0.50000500000E+01  0.51100000000E-03 0.  1.
         11   -1    0    0    0    0 -0.00000000000E+00 -0.00000000000E+00 -0.50000499739E+01  0.50000500000E+01  0.51100000000E-03 0. -1.
         50    1    1    2    0    0 -0.78472235794E-02  0.15811272008E-01  0.13726880913E-01  0.50000500000E+01  0.50000000000E+01 0.  0.
         50    1    1    2    0    0  0.78472235794E-02 -0.15811272008E-01 -0.13726880913E-01  0.50000500000E+01  0.50000000000E+01 0.  1.
</event>
<event>
 4    1  0.4944208E-021  0.5000050E+01  0.7818608E-02  0.2136455E+00
        -11   -1    0    0    0    0  0.00000000000E+00  0.00000000000E+00  0.50000499739E+01  0.50000500000E+01  0.51100000000E-03 0. -1.
         11   -1    0    0    0    0 -0.00000000000E+00 -0.00000000000E+00 -0.50000499739E+01  0.50000500000E+01  0.51100000000E-03 0.  1.
         50    1    1    2    0    0  0.95851923577E-02 -0.19703326886E-01  0.44615576977E-02  0.50000500000E+01  0.50000000000E+01 0.  0.
         50    1    1    2    0    0 -0.95851923577E-02  0.19703326886E-01 -0.44615576977E-02  0.50000500000E+01  0.50000000000E+01 0. -1.
</event>
<event>
 4    1  0.4944208E-021  0.5000050E+01  0.7818608E-02  0.2136455E+00
        -11   -1    0    0    0    0  0.00000000000E+00  0.00000000000E+00  0.50000499739E+01  0.50000500000E+01  0.51100000000E-03 0.  1.
         11   -1    0    0    0    0 -0.00000000000E+00 -0.00000000000E+00 -0.50000499739E+01  0.50000500000E+01  0.51100000000E-03 0. -1.
         50    1    1    2    0    0 -0.96144982805E-02  0.19690786577E-01 -0.44538575191E-02  0.50000500000E+01  0.50000000000E+01 0. -1.
         50    1    1    2    0    0  0.96144982805E-02 -0.19690786577E-01  0.44538575191E-02  0.50000500000E+01  0.50000000000E+01 0.  0.
</event>
<event>
 4    1  0.4944208E-021  0.5000050E+01  0.7818608E-02  0.2136455E+00
        -11   -1    0    0    0    0  0.00000000000E+00  0.00000000000E+00  0.50000499739E+01  0.50000500000E+01  0.51100000000E-03 0. -1.
         11   -1    0    0    0    0 -0.00000000000E+00 -0.00000000000E+00 -0.50000499739E+01  0.50000500000E+01  0.51100000000E-03 0.  1.
         50    1    1    2    0    0 -0.20840594121E-02  0.19501846435E-01  0.10739514980E-01  0.50000500000E+01  0.50000000000E+01 0.  0.
         50    1    1    2    0    0  0.20840594121E-02 -0.19501846435E-01 -0.10739514980E-01  0.50000500000E+01  0.50000000000E+01 0. -1.
</event>
<event>
 4    1  0.4944208E-021  0.5000050E+01  0.7818608E-02  0.2136455E+00
        -11   -1    0    0    0    0  0.00000000000E+00  0.00000000000E+00  0.50000499739E+01  0.50000500000E+01  0.51100000000E-03 0.  1.
         11   -1    0    0    0    0 -0.00000000000E+00 -0.00000000000E+00 -0.50000499739E+01  0.50000500000E+01  0.51100000000E-03 0. -1.
         50    1    1    2    0    0  0.80722004884E-02 -0.19006058645E-01  0.85797327496E-02  0.50000500000E+01  0.50000000000E+01 0. -1.
         50    1    1    2    0    0 -0.80722004884E-02  0.19006058645E-01 -0.85797327496E-02  0.50000500000E+01  0.50000000000E+01 0.  0.
</event>
<event>
 4    1  0.4944208E-021  0.5000050E+01  0.7818608E-02  0.2136455E+00
        -11   -1    0    0    0    0  0.00000000000E+00  0.00000000000E+00  0.50000499739E+01  0.50000500000E+01  0.51100000000E-03 0. -1.
         11   -1    0    0    0    0 -0.00000000000E+00 -0.00000000000E+00 -0.50000499739E+01  0.50000500000E+01  0.51100000000E-03 0.  1.
         50    1    1    2    0    0  0.10932838389E-01  0.19123513529E-01 -0.38427561786E-02  0.50000500000E+01  0.50000000000E+01 0.  1.
         50    1    1    2    0    0 -0.10932838389E-01 -0.19123513529E-01  0.38427561786E-02  0.50000500000E+01  0.50000000000E+01 0. -1.
</event>
<event>
 4    1  0.4944208E-021  0.5000050E+01  0.7818608E-02  0.2136455E+00
        -11   -1    0    0    0    0  0.00000000000E+00  0.00000000000E+00  0.50000499739E+01  0.50000500000E+01  0.51100000000E-03 0. -1.
         11   -1    0    0    0    0 -0.00000000000E+00 -0.00000000000E+00 -0.50000499739E+01  0.50000500000E+01  0.51100000000E-03 0.  1.
         50    1    1    2    0    0 -0.89672703513E-02 -0.45756965404E-02  0.19966310716E-01  0.50000500000E+01  0.50000000000E+01 0.  0.
         50    1    1    2    0    0  0.89672703513E-02  0.45756965404E-02 -0.19966310716E-01  0.50000500000E+01  0.50000000000E+01 0.  1.
</event>
<event>
 4    1  0.4944208E-021  0.5000050E+01  0.7818608E-02  0.2136455E+00
        -11   -1    0    0    0    0  0.00000000000E+00  0.00000000000E+00  0.50000499739E+01  0.50000500000E+01  0.51100000000E-03 0. -1.
         11   -1    0    0    0    0 -0.00000000000E+00 -0.00000000000E+00 -0.50000499739E+01  0.50000500000E+01  0.51100000000E-03 0.  1.
         50    1    1    2    0    0  0.85577838258E-02  0.15368128078E-01  0.13805342276E-01  0.50000500000E+01  0.50000000000E+01 0. -1.
         50    1    1    2    0    0 -0.85577838258E-02 -0.15368128078E-01 -0.13805342276E-01  0.50000500000E+01  0.50000000000E+01 0.  1.
</event>
<event>
 4    1  0.4944208E-021  0.5000050E+01  0.7818608E-02  0.2136455E+00
        -11   -1    0    0    0    0  0.00000000000E+00  0.00000000000E+00  0.50000499739E+01  0.50000500000E+01  0.51100000000E-03 0.  1.
         11   -1    0    0    0    0 -0.00000000000E+00 -0.00000000000E+00 -0.50000499739E+01  0.50000500000E+01  0.51100000000E-03 0. -1.
         50    1    1    2    0    0 -0.18459623897E-02 -0.20239095250E-01  0.93259823236E-02  0.50000500000E+01  0.50000000000E+01 0.  1.
         50    1    1    2    0    0  0.18459623897E-02  0.20239095250E-01 -0.93259823236E-02  0.50000500000E+01  0.50000000000E+01 0. -1.
</event>
<event>
 4    1  0.4944208E-021  0.5000050E+01  0.7818608E-02  0.2136455E+00
        -11   -1    0    0    0    0  0.00000000000E+00  0.00000000000E+00  0.50000499739E+01  0.50000500000E+01  0.51100000000E-03 0.  1.
         11   -1    0    0    0    0 -0.00000000000E+00 -0.00000000000E+00 -0.50000499739E+01  0.50000500000E+01  0.51100000000E-03 0. -1.
         50    1    1    2    0    0  0.52609094529E-02  0.28297679876E-02  0.21548033434E-01  0.50000500000E+01  0.50000000000E+01 0.  0.
         50    1    1    2    0    0 -0.52609094529E-02 -0.28297679876E-02 -0.21548033434E-01  0.50000500000E+01  0.50000000000E+01 0. -1.
</event>
<event>
 4    1  0.4944208E-021  0.5000050E+01  0.7818608E-02  0.2136455E+00
        -11   -1    0    0    0    0  0.00000000000E+00  0.00000000000E+00  0.50000499739E+01  0.50000500000E+01  0.51100000000E-03 0.  1.
         11   -1    0    0    0    0 -0.00000000000E+00 -0.00000000000E+00 -0.50000499739E+01  0.50000500000E+01  0.51100000000E-03 0. -1.
         50    1    1    2    0    0 -0.20480713317E-01 -0.74877560642E-02  0.49473620380E-02  0.50000500000E+01  0.50000000000E+01 0. -1.
         50    1    1    2    0    0  0.20480713317E-01  0.74877560642E-02 -0.49473620380E-02  0.50000500000E+01  0.50000000000E+01 0.  0.
</event>
<event>
 4    1  0.4944208E-021  0.5000050E+01  0.7818608E-02  0.2136455E+00
        -11   -1    0    0    0    0  0.00000000000E+00  0.00000000000E+00  0.50000499739E+01  0.50000500000E+01  0.51100000000E-03 0. -1.
         11   -1    0    0    0    0 -0.00000000000E+00 -0.00000000000E+00 -0.50000499739E+01  0.50000500000E+01  0.51100000000E-03 0.  1.
         50    1    1    2    0    0  0.78909753197E-02  0.65582379181E-02 -0.19867675352E-01  0.50000500000E+01  0.50000000000E+01 0.  1.
         50    1    1    2    0    0 -0.78909753197E-02 -0.65582379181E-02  0.19867675352E-01  0.50000500000E+01  0.50000000000E+01 0.  0.
</event>
<event>
 4    1  0.4944208E-021  0.5000050E+01  0.7818608E-02  0.2136455E+00
        -11   -1    0    0    0    0  0.00000000000E+00  0.00000000000E+00  0.50000499739E+01  0.50000500000E+01  0.51100000000E-03 0.  1.
         11   -1    0    0    0    0 -0.00000000000E+00 -0.00000000000E+00 -0.50000499739E+01  0.50000500000E+01  0.51100000000E-03 0. -1.
         50    1    1    2    0    0  0.15618016937E-01 -0.13586803390E-01  0.84545148047E-02  0.50000500000E+01  0.50000000000E+01 0.  1.
         50    1    1    2    0    0 -0.15618016937E-01  0.13586803390E-01 -0.84545148047E-02  0.50000500000E+01  0.50000000000E+01 0. -1.
</event>
<event>
 4    1  0.4944208E-021  0.5000050E+01  0.7818608E-02  0.2136455E+00
        -11   -1    0    0    0    0  0.00000000000E+00  0.00000000000E+00  0.50000499739E+01  0.50000500000E+01  0.51100000000E-03 0.  1.
         11   -1    0    0    0    0 -0.00000000000E+00 -0.00000000000E+00 -0.50000499739E+01  0.50000500000E+01  0.51100000000E-03 0. -1.
         50    1    1    2    0    0 -0.21265512156E-01 -0.68661999986E-02 -0.79736460103E-03  0.50000500000E+01  0.50000000000E+01 0.  0.
         50    1    1    2    0    0  0.21265512156E-01  0.68661999986E-02  0.79736460103E-03  0.50000500000E+01  0.50000000000E+01 0. -1.
</event>
<event>
 4    1  0.4944208E-021  0.5000050E+01  0.7818608E-02  0.2136455E+00
        -11   -1    0    0    0    0  0.00000000000E+00  0.00000000000E+00  0.50000499739E+01  0.50000500000E+01  0.51100000000E-03 0.  1.
         11   -1    0    0    0    0 -0.00000000000E+00 -0.00000000000E+00 -0.50000499739E+01  0.50000500000E+01  0.51100000000E-03 0. -1.
         50    1    1    2    0    0  0.18931422648E-01 -0.11447977582E-01 -0.32476985409E-02  0.50000500000E+01  0.50000000000E+01 0. -1.
         50    1    1    2    0    0 -0.18931422648E-01  0.11447977582E-01  0.32476985409E-02  0.50000500000E+01  0.50000000000E+01 0.  1.
</event>
<event>
 4    1  0.4944208E-021  0.5000050E+01  0.7818608E-02  0.2136455E+00
        -11   -1    0    0    0    0  0.00000000000E+00  0.00000000000E+00  0.50000499739E+01  0.50000500000E+01  0.51100000000E-03 0.  1.
         11   -1    0    0    0    0 -0.00000000000E+00 -0.00000000000E+00 -0.50000499739E+01  0.50000500000E+01  0.51100000000E-03 0. -1.
         50    1    1    2    0    0 -0.27651318051E-02  0.20631076730E-01  0.81679384834E-02  0.50000500000E+01  0.50000000000E+01 0.  0.
         50    1    1    2    0    0  0.27651318051E-02 -0.20631076730E-01 -0.81679384834E-02  0.50000500000E+01  0.50000000000E+01 0.  0.
</event>
<event>
 4    1  0.4944208E-021  0.5000050E+01  0.7818608E-02  0.2136455E+00
        -11   -1    0    0    0    0  0.00000000000E+00  0.00000000000E+00  0.50000499739E+01  0.50000500000E+01  0.51100000000E-03 0. -1.
         11   -1    0    0    0    0 -0.00000000000E+00 -0.00000000000E+00 -0.50000499739E+01  0.50000500000E+01  0.51100000000E-03 0.  1.
         50    1    1    2    0    0 -0.58770489325E-02  0.18714601969E-02 -0.21493264819E-01  0.50000500000E+01  0.50000000000E+01 0.  1.
         50    1    1    2    0    0  0.58770489325E-02 -0.18714601969E-02  0.21493264819E-01  0.50000500000E+01  0.50000000000E+01 0.  0.
</event>
<event>
 4    1  0.4944208E-021  0.5000050E+01  0.7818608E-02  0.2136455E+00
        -11   -1    0    0    0    0  0.00000000000E+00  0.00000000000E+00  0.50000499739E+01  0.50000500000E+01  0.51100000000E-03 0. -1.
         11   -1    0    0    0    0 -0.00000000000E+00 -0.00000000000E+00 -0.50000499739E+01  0.50000500000E+01  0.51100000000E-03 0.  1.
         50    1    1    2    0    0 -0.43159841582E-02  0.17228618421E-01  0.13584899266E-01  0.50000500000E+01  0.50000000000E+01 0. -1.
         50    1    1    2    0    0  0.43159841582E-02 -0.17228618421E-01 -0.13584899266E-01  0.50000500000E+01  0.50000000000E+01 0.  1.
</event>
<event>
 4    1  0.4944208E-021  0.5000050E+01  0.7818608E-02  0.2136455E+00
        -11   -1    0    0    0    0  0.00000000000E+00  0.00000000000E+00  0.50000499739E+01  0.50000500000E+01  0.51100000000E-03 0.  1.
         11   -1    0    0    0    0 -0.00000000000E+00 -0.00000000000E+00 -0.50000499739E+01  0.50000500000E+01  0.51100000000E-03 0. -1.
         50    1    1    2    0    0  0.12494416152E-01  0.91066806498E-02 -0.16154269794E-01  0.50000500000E+01  0.50000000000E+01 0.  0.
         50    1    1    2    0    0 -0.12494416152E-01 -0.91066806498E-02  0.16154269794E-01  0.50000500000E+01  0.50000000000E+01 0.  1.
</event>
<event>
 4    1  0.4944208E-021  0.5000050E+01  0.7818608E-02  0.2136455E+00
        -11   -1    0    0    0    0  0.00000000000E+00  0.00000000000E+00  0.50000499739E+01  0.50000500000E+01  0.51100000000E-03 0. -1.
         11   -1    0    0    0    0 -0.00000000000E+00 -0.00000000000E+00 -0.50000499739E+01  0.50000500000E+01  0.51100000000E-03 0.  1.
         50    1    1    2    0    0 -0.15800716492E-01  0.12940271090E-01  0.91043529403E-02  0.50000500000E+01  0.50000000000E+01 0. -1.
         50    1    1    2    0    0  0.15800716492E-01 -0.12940271090E-01 -0.91043529403E-02  0.50000500000E+01  0.50000000000E+01 0.  1.
</event>
<event>
 4    1  0.4944208E-021  0.5000050E+01  0.7818608E-02  0.2136455E+00
        -11   -1    0    0    0    0  0.00000000000E+00  0.00000000000E+00  0.50000499739E+01  0.50000500000E+01  0.51100000000E-03 0. -1.
         11   -1    0    0    0    0 -0.00000000000E+00 -0.00000000000E+00 -0.50000499739E+01  0.50000500000E+01  0.51100000000E-03 0.  1.
         50    1    1    2    0    0 -0.15007859542E-01  0.14300096567E-01  0.83829523525E-02  0.50000500000E+01  0.50000000000E+01 0. -1.
         50    1    1    2    0    0  0.15007859542E-01 -0.14300096567E-01 -0.83829523525E-02  0.50000500000E+01  0.50000000000E+01 0.  1.
</event>
<event>
 4    1  0.4944208E-021  0.5000050E+01  0.7818608E-02  0.2136455E+00
        -11   -1    0    0    0    0  0.00000000000E+00  0.00000000000E+00  0.50000499739E+01  0.50000500000E+01  0.51100000000E-03 0. -1.
         11   -1    0    0    0    0 -0.00000000000E+00 -0.00000000000E+00 -0.50000499739E+01  0.50000500000E+01  0.51100000000E-03 0.  1.
         50    1    1    2    0    0  0.28682755358E-02  0.19511259758E-01  0.10539745638E-01  0.50000500000E+01  0.50000000000E+01 0. -1.
         50    1    1    2    0    0 -0.28682755358E-02 -0.19511259758E-01 -0.10539745638E-01  0.50000500000E+01  0.50000000000E+01 0.  1.
</event>
<event>
 4    1  0.4944208E-021  0.5000050E+01  0.7818608E-02  0.2136455E+00
        -11   -1    0    0    0    0  0.00000000000E+00  0.00000000000E+00  0.50000499739E+01  0.50000500000E+01  0.51100000000E-03 0.  1.
         11   -1    0    0    0    0 -0.00000000000E+00 -0.00000000000E+00 -0.50000499739E+01  0.50000500000E+01  0.51100000000E-03 0. -1.
         50    1    1    2    0    0  0.22019963200E-01 -0.15959895742E-02  0.35463414894E-02  0.50000500000E+01  0.50000000000E+01 0. -1.
         50    1    1    2    0    0 -0.22019963200E-01  0.15959895742E-02 -0.35463414894E-02  0.50000500000E+01  0.50000000000E+01 0.  0.
</event>
<event>
 4    1  0.4944208E-021  0.5000050E+01  0.7818608E-02  0.2136455E+00
        -11   -1    0    0    0    0  0.00000000000E+00  0.00000000000E+00  0.50000499739E+01  0.50000500000E+01  0.51100000000E-03 0.  1.
         11   -1    0    0    0    0 -0.00000000000E+00 -0.00000000000E+00 -0.50000499739E+01  0.50000500000E+01  0.51100000000E-03 0. -1.
         50    1    1    2    0    0 -0.14368440363E-01  0.32526797225E-02  0.16821726908E-01  0.50000500000E+01  0.50000000000E+01 0.  1.
         50    1    1    2    0    0  0.14368440363E-01 -0.32526797225E-02 -0.16821726908E-01  0.50000500000E+01  0.50000000000E+01 0. -1.
</event>
<event>
 4    1  0.4944208E-021  0.5000050E+01  0.7818608E-02  0.2136455E+00
        -11   -1    0    0    0    0  0.00000000000E+00  0.00000000000E+00  0.50000499739E+01  0.50000500000E+01  0.51100000000E-03 0. -1.
         11   -1    0    0    0    0 -0.00000000000E+00 -0.00000000000E+00 -0.50000499739E+01  0.50000500000E+01  0.51100000000E-03 0.  1.
         50    1    1    2    0    0  0.22158149780E-01  0.21560163451E-02  0.20905721321E-02  0.50000500000E+01  0.50000000000E+01 0. -1.
         50    1    1    2    0    0 -0.22158149780E-01 -0.21560163451E-02 -0.20905721321E-02  0.50000500000E+01  0.50000000000E+01 0.  1.
</event>
<event>
 4    1  0.4944208E-021  0.5000050E+01  0.7818608E-02  0.2136455E+00
        -11   -1    0    0    0    0  0.00000000000E+00  0.00000000000E+00  0.50000499739E+01  0.50000500000E+01  0.51100000000E-03 0. -1.
         11   -1    0    0    0    0 -0.00000000000E+00 -0.00000000000E+00 -0.50000499739E+01  0.50000500000E+01  0.51100000000E-03 0.  1.
         50    1    1    2    0    0 -0.20522136672E-01 -0.43064339041E-03 -0.88689882560E-02  0.50000500000E+01  0.50000000000E+01 0. -1.
         50    1    1    2    0    0  0.20522136672E-01  0.43064339041E-03  0.88689882560E-02  0.50000500000E+01  0.50000000000E+01 0.  0.
</event>
<event>
 4    1  0.4944208E-021  0.5000050E+01  0.7818608E-02  0.2136455E+00
        -11   -1    0    0    0    0  0.00000000000E+00  0.00000000000E+00  0.50000499739E+01  0.50000500000E+01  0.51100000000E-03 0.  1.
         11   -1    0    0    0    0 -0.00000000000E+00 -0.00000000000E+00 -0.50000499739E+01  0.50000500000E+01  0.51100000000E-03 0. -1.
         50    1    1    2    0    0  0.12903620829E-02 -0.22011813244E-01  0.37171956353E-02  0.50000500000E+01  0.50000000000E+01 0. -1.
         50    1    1    2    0    0 -0.12903620829E-02  0.22011813244E-01 -0.37171956353E-02  0.50000500000E+01  0.50000000000E+01 0.  0.
</event>
<event>
 4    1  0.4944208E-021  0.5000050E+01  0.7818608E-02  0.2136455E+00
        -11   -1    0    0    0    0  0.00000000000E+00  0.00000000000E+00  0.50000499739E+01  0.50000500000E+01  0.51100000000E-03 0. -1.
         11   -1    0    0    0    0 -0.00000000000E+00 -0.00000000000E+00 -0.50000499739E+01  0.50000500000E+01  0.51100000000E-03 0.  1.
         50    1    1    2    0    0  0.13688566815E-01  0.27052553844E-02 -0.17473043005E-01  0.50000500000E+01  0.50000000000E+01 0.  0.
         50    1    1    2    0    0 -0.13688566815E-01 -0.27052553844E-02  0.17473043005E-01  0.50000500000E+01  0.50000000000E+01 0.  0.
</event>
<event>
 4    1  0.4944208E-021  0.5000050E+01  0.7818608E-02  0.2136455E+00
        -11   -1    0    0    0    0  0.00000000000E+00  0.00000000000E+00  0.50000499739E+01  0.50000500000E+01  0.51100000000E-03 0.  1.
         11   -1    0    0    0    0 -0.00000000000E+00 -0.00000000000E+00 -0.50000499739E+01  0.50000500000E+01  0.51100000000E-03 0. -1.
         50    1    1    2    0    0 -0.19357811168E-01 -0.10917137092E-01  0.24685551454E-02  0.50000500000E+01  0.50000000000E+01 0.  1.
         50    1    1    2    0    0  0.19357811168E-01  0.10917137092E-01 -0.24685551454E-02  0.50000500000E+01  0.50000000000E+01 0. -1.
</event>
<event>
 4    1  0.4944208E-021  0.5000050E+01  0.7818608E-02  0.2136455E+00
        -11   -1    0    0    0    0  0.00000000000E+00  0.00000000000E+00  0.50000499739E+01  0.50000500000E+01  0.51100000000E-03 0.  1.
         11   -1    0    0    0    0 -0.00000000000E+00 -0.00000000000E+00 -0.50000499739E+01  0.50000500000E+01  0.51100000000E-03 0. -1.
         50    1    1    2    0    0  0.20263317521E-01  0.29012054997E-02  0.89990816015E-02  0.50000500000E+01  0.50000000000E+01 0. -1.
         50    1    1    2    0    0 -0.20263317521E-01 -0.29012054997E-02 -0.89990816015E-02  0.50000500000E+01  0.50000000000E+01 0.  0.
</event>
<event>
 4    1  0.4944208E-021  0.5000050E+01  0.7818608E-02  0.2136455E+00
        -11   -1    0    0    0    0  0.00000000000E+00  0.00000000000E+00  0.50000499739E+01  0.50000500000E+01  0.51100000000E-03 0.  1.
         11   -1    0    0    0    0 -0.00000000000E+00 -0.00000000000E+00 -0.50000499739E+01  0.50000500000E+01  0.51100000000E-03 0. -1.
         50    1    1    2    0    0 -0.42942809298E-02 -0.18966586480E-01 -0.11037674056E-01  0.50000500000E+01  0.50000000000E+01 0.  1.
         50    1    1    2    0    0  0.42942809298E-02  0.18966586480E-01  0.11037674056E-01  0.50000500000E+01  0.50000000000E+01 0.  0.
</event>
<event>
 4    1  0.4944208E-021  0.5000050E+01  0.7818608E-02  0.2136455E+00
        -11   -1    0    0    0    0  0.00000000000E+00  0.00000000000E+00  0.50000499739E+01  0.50000500000E+01  0.51100000000E-03 0. -1.
         11   -1    0    0    0    0 -0.00000000000E+00 -0.00000000000E+00 -0.50000499739E+01  0.50000500000E+01  0.51100000000E-03 0.  1.
         50    1    1    2    0    0 -0.16990482537E-01 -0.14329779241E-01  0.24461050798E-02  0.50000500000E+01  0.50000000000E+01 0. -1.
         50    1    1    2    0    0  0.16990482537E-01  0.14329779241E-01 -0.24461050798E-02  0.50000500000E+01  0.50000000000E+01 0.  0.
</event>
<event>
 4    1  0.4944208E-021  0.5000050E+01  0.7818608E-02  0.2136455E+00
        -11   -1    0    0    0    0  0.00000000000E+00  0.00000000000E+00  0.50000499739E+01  0.50000500000E+01  0.51100000000E-03 0. -1.
         11   -1    0    0    0    0 -0.00000000000E+00 -0.00000000000E+00 -0.50000499739E+01  0.50000500000E+01  0.51100000000E-03 0.  1.
         50    1    1    2    0    0  0.12615286451E-01  0.14652264575E-01 -0.11232461466E-01  0.50000500000E+01  0.50000000000E+01 0. -1.
         50    1    1    2    0    0 -0.12615286451E-01 -0.14652264575E-01  0.11232461466E-01  0.50000500000E+01  0.50000000000E+01 0.  0.
</event>
<event>
 4    1  0.4944208E-021  0.5000050E+01  0.7818608E-02  0.2136455E+00
        -11   -1    0    0    0    0  0.00000000000E+00  0.00000000000E+00  0.50000499739E+01  0.50000500000E+01  0.51100000000E-03 0.  1.
         11   -1    0    0    0    0 -0.00000000000E+00 -0.00000000000E+00 -0.50000499739E+01  0.50000500000E+01  0.51100000000E-03 0. -1.
         50    1    1    2    0    0  0.21818067901E-01 -0.20545504212E-02  0.44444612285E-02  0.50000500000E+01  0.50000000000E+01 0.  1.
         50    1    1    2    0    0 -0.21818067901E-01  0.20545504212E-02 -0.44444612285E-02  0.50000500000E+01  0.50000000000E+01 0. -1.
</event>
<event>
 4    1  0.4944208E-021  0.5000050E+01  0.7818608E-02  0.2136455E+00
        -11   -1    0    0    0    0  0.00000000000E+00  0.00000000000E+00  0.50000499739E+01  0.50000500000E+01  0.51100000000E-03 0.  1.
         11   -1    0    0    0    0 -0.00000000000E+00 -0.00000000000E+00 -0.50000499739E+01  0.50000500000E+01  0.51100000000E-03 0. -1.
         50    1    1    2    0    0 -0.14284860790E-01 -0.10500808432E-01  0.13626381562E-01  0.50000500000E+01  0.50000000000E+01 0.  1.
         50    1    1    2    0    0  0.14284860790E-01  0.10500808432E-01 -0.13626381562E-01  0.50000500000E+01  0.50000000000E+01 0.  1.
</event>
<event>
 4    1  0.4944208E-021  0.5000050E+01  0.7818608E-02  0.2136455E+00
        -11   -1    0    0    0    0  0.00000000000E+00  0.00000000000E+00  0.50000499739E+01  0.50000500000E+01  0.51100000000E-03 0.  1.
         11   -1    0    0    0    0 -0.00000000000E+00 -0.00000000000E+00 -0.50000499739E+01  0.50000500000E+01  0.51100000000E-03 0. -1.
         50    1    1    2    0    0  0.10276698342E-01 -0.21519185231E-02  0.19742371131E-01  0.50000500000E+01  0.50000000000E+01 0.  0.
         50    1    1    2    0    0 -0.10276698342E-01  0.21519185231E-02 -0.19742371131E-01  0.50000500000E+01  0.50000000000E+01 0.  0.
</event>
<event>
 4    1  0.4944208E-021  0.5000050E+01  0.7818608E-02  0.2136455E+00
        -11   -1    0    0    0    0  0.00000000000E+00  0.00000000000E+00  0.50000499739E+01  0.50000500000E+01  0.51100000000E-03 0. -1.
         11   -1    0    0    0    0 -0.00000000000E+00 -0.00000000000E+00 -0.50000499739E+01  0.50000500000E+01  0.51100000000E-03 0.  1.
         50    1    1    2    0    0 -0.15442361623E-01  0.64903497845E-02  0.14812539525E-01  0.50000500000E+01  0.50000000000E+01 0.  1.
         50    1    1    2    0    0  0.15442361623E-01 -0.64903497845E-02 -0.14812539525E-01  0.50000500000E+01  0.50000000000E+01 0.  1.
</event>
<event>
 4    1  0.4944208E-021  0.5000050E+01  0.7818608E-02  0.2136455E+00
        -11   -1    0    0    0    0  0.00000000000E+00  0.00000000000E+00  0.50000499739E+01  0.50000500000E+01  0.51100000000E-03 0. -1.
         11   -1    0    0    0    0 -0.00000000000E+00 -0.00000000000E+00 -0.50000499739E+01  0.50000500000E+01  0.51100000000E-03 0.  1.
         50    1    1    2    0    0  0.19289404622E-01 -0.98989209344E-02 -0.54710815799E-02  0.50000500000E+01  0.50000000000E+01 0. -1.
         50    1    1    2    0    0 -0.19289404622E-01  0.98989209344E-02  0.54710815799E-02  0.50000500000E+01  0.50000000000E+01 0.  1.
</event>
<event>
 4    1  0.4944208E-021  0.5000050E+01  0.7818608E-02  0.2136455E+00
        -11   -1    0    0    0    0  0.00000000000E+00  0.00000000000E+00  0.50000499739E+01  0.50000500000E+01  0.51100000000E-03 0.  1.
         11   -1    0    0    0    0 -0.00000000000E+00 -0.00000000000E+00 -0.50000499739E+01  0.50000500000E+01  0.51100000000E-03 0. -1.
         50    1    1    2    0    0 -0.12282244192E-02 -0.94619005751E-02  0.20222917749E-01  0.50000500000E+01  0.50000000000E+01 0.  1.
         50    1    1    2    0    0  0.12282244192E-02  0.94619005751E-02 -0.20222917749E-01  0.50000500000E+01  0.50000000000E+01 0. -1.
</event>
<event>
 4    1  0.4944208E-021  0.5000050E+01  0.7818608E-02  0.2136455E+00
        -11   -1    0    0    0    0  0.00000000000E+00  0.00000000000E+00  0.50000499739E+01  0.50000500000E+01  0.51100000000E-03 0.  1.
         11   -1    0    0    0    0 -0.00000000000E+00 -0.00000000000E+00 -0.50000499739E+01  0.50000500000E+01  0.51100000000E-03 0. -1.
         50    1    1    2    0    0  0.21622483626E-01 -0.20467430385E-02  0.53180395617E-02  0.50000500000E+01  0.50000000000E+01 0.  0.
         50    1    1    2    0    0 -0.21622483626E-01  0.20467430385E-02 -0.53180395617E-02  0.50000500000E+01  0.50000000000E+01 0. -1.
</event>
<event>
 4    1  0.4944208E-021  0.5000050E+01  0.7818608E-02  0.2136455E+00
        -11   -1    0    0    0    0  0.00000000000E+00  0.00000000000E+00  0.50000499739E+01  0.50000500000E+01  0.51100000000E-03 0. -1.
         11   -1    0    0    0    0 -0.00000000000E+00 -0.00000000000E+00 -0.50000499739E+01  0.50000500000E+01  0.51100000000E-03 0.  1.
         50    1    1    2    0    0  0.68646405476E-02  0.13630062491E-01 -0.16343212862E-01  0.50000500000E+01  0.50000000000E+01 0.  0.
         50    1    1    2    0    0 -0.68646405476E-02 -0.13630062491E-01  0.16343212862E-01  0.50000500000E+01  0.50000000000E+01 0. -1.
</event>
<event>
 4    1  0.4944208E-021  0.5000050E+01  0.7818608E-02  0.2136455E+00
        -11   -1    0    0    0    0  0.00000000000E+00  0.00000000000E+00  0.50000499739E+01  0.50000500000E+01  0.51100000000E-03 0.  1.
         11   -1    0    0    0    0 -0.00000000000E+00 -0.00000000000E+00 -0.50000499739E+01  0.50000500000E+01  0.51100000000E-03 0. -1.
         50    1    1    2    0    0  0.19550306974E-01 -0.93754862050E-02  0.54670152402E-02  0.50000500000E+01  0.50000000000E+01 0.  0.
         50    1    1    2    0    0 -0.19550306974E-01  0.93754862050E-02 -0.54670152402E-02  0.50000500000E+01  0.50000000000E+01 0.  1.
</event>
<event>
 4    1  0.4944208E-021  0.5000050E+01  0.7818608E-02  0.2136455E+00
        -11   -1    0    0    0    0  0.00000000000E+00  0.00000000000E+00  0.50000499739E+01  0.50000500000E+01  0.51100000000E-03 0. -1.
         11   -1    0    0    0    0 -0.00000000000E+00 -0.00000000000E+00 -0.50000499739E+01  0.50000500000E+01  0.51100000000E-03 0.  1.
         50    1    1    2    0    0 -0.84833613456E-03 -0.20639228350E-01  0.85618385239E-02  0.50000500000E+01  0.50000000000E+01 0.  1.
         50    1    1    2    0    0  0.84833613456E-03  0.20639228350E-01 -0.85618385239E-02  0.50000500000E+01  0.50000000000E+01 0.  0.
</event>
<event>
 4    1  0.4944208E-021  0.5000050E+01  0.7818608E-02  0.2136455E+00
        -11   -1    0    0    0    0  0.00000000000E+00  0.00000000000E+00  0.50000499739E+01  0.50000500000E+01  0.51100000000E-03 0. -1.
         11   -1    0    0    0    0 -0.00000000000E+00 -0.00000000000E+00 -0.50000499739E+01  0.50000500000E+01  0.51100000000E-03 0.  1.
         50    1    1    2    0    0  0.21556662623E-01  0.97740681679E-03  0.58615247571E-02  0.50000500000E+01  0.50000000000E+01 0.  0.
         50    1    1    2    0    0 -0.21556662623E-01 -0.97740681679E-03 -0.58615247571E-02  0.50000500000E+01  0.50000000000E+01 0.  0.
</event>
<event>
 4    1  0.4944208E-021  0.5000050E+01  0.7818608E-02  0.2136455E+00
        -11   -1    0    0    0    0  0.00000000000E+00  0.00000000000E+00  0.50000499739E+01  0.50000500000E+01  0.51100000000E-03 0.  1.
         11   -1    0    0    0    0 -0.00000000000E+00 -0.00000000000E+00 -0.50000499739E+01  0.50000500000E+01  0.51100000000E-03 0. -1.
         50    1    1    2    0    0 -0.18494554126E-01  0.10035102263E-01  0.75664185874E-02  0.50000500000E+01  0.50000000000E+01 0. -1.
         50    1    1    2    0    0  0.18494554126E-01 -0.10035102263E-01 -0.75664185874E-02  0.50000500000E+01  0.50000000000E+01 0.  1.
</event>
<event>
 4    1  0.4944208E-021  0.5000050E+01  0.7818608E-02  0.2136455E+00
        -11   -1    0    0    0    0  0.00000000000E+00  0.00000000000E+00  0.50000499739E+01  0.50000500000E+01  0.51100000000E-03 0. -1.
         11   -1    0    0    0    0 -0.00000000000E+00 -0.00000000000E+00 -0.50000499739E+01  0.50000500000E+01  0.51100000000E-03 0.  1.
         50    1    1    2    0    0 -0.91233727876E-02 -0.80473908995E-03 -0.20398994190E-01  0.50000500000E+01  0.50000000000E+01 0.  1.
         50    1    1    2    0    0  0.91233727876E-02  0.80473908995E-03  0.20398994190E-01  0.50000500000E+01  0.50000000000E+01 0.  0.
</event>
<event>
 4    1  0.4944208E-021  0.5000050E+01  0.7818608E-02  0.2136455E+00
        -11   -1    0    0    0    0  0.00000000000E+00  0.00000000000E+00  0.50000499739E+01  0.50000500000E+01  0.51100000000E-03 0.  1.
         11   -1    0    0    0    0 -0.00000000000E+00 -0.00000000000E+00 -0.50000499739E+01  0.50000500000E+01  0.51100000000E-03 0. -1.
         50    1    1    2    0    0 -0.68968832611E-02  0.20614498086E-01  0.52419433346E-02  0.50000500000E+01  0.50000000000E+01 0. -1.
         50    1    1    2    0    0  0.68968832611E-02 -0.20614498086E-01 -0.52419433346E-02  0.50000500000E+01  0.50000000000E+01 0.  0.
</event>
<event>
 4    1  0.4944208E-021  0.5000050E+01  0.7818608E-02  0.2136455E+00
        -11   -1    0    0    0    0  0.00000000000E+00  0.00000000000E+00  0.50000499739E+01  0.50000500000E+01  0.51100000000E-03 0. -1.
         11   -1    0    0    0    0 -0.00000000000E+00 -0.00000000000E+00 -0.50000499739E+01  0.50000500000E+01  0.51100000000E-03 0.  1.
         50    1    1    2    0    0  0.16890990730E-01  0.13793339508E-01 -0.49437553926E-02  0.50000500000E+01  0.50000000000E+01 0. -1.
         50    1    1    2    0    0 -0.16890990730E-01 -0.13793339508E-01  0.49437553926E-02  0.50000500000E+01  0.50000000000E+01 0.  1.
</event>
<event>
 4    1  0.4944208E-021  0.5000050E+01  0.7818608E-02  0.2136455E+00
        -11   -1    0    0    0    0  0.00000000000E+00  0.00000000000E+00  0.50000499739E+01  0.50000500000E+01  0.51100000000E-03 0.  1.
         11   -1    0    0    0    0 -0.00000000000E+00 -0.00000000000E+00 -0.50000499739E+01  0.50000500000E+01  0.51100000000E-03 0. -1.
         50    1    1    2    0    0 -0.96717754307E-02  0.49406074374E-02  0.19546090611E-01  0.50000500000E+01  0.50000000000E+01 0.  0.
         50    1    1    2    0    0  0.96717754307E-02 -0.49406074374E-02 -0.19546090611E-01  0.50000500000E+01  0.50000000000E+01 0. -1.
</event>
<event>
 4    1  0.4944208E-021  0.5000050E+01  0.7818608E-02  0.2136455E+00
        -11   -1    0    0    0    0  0.00000000000E+00  0.00000000000E+00  0.50000499739E+01  0.50000500000E+01  0.51100000000E-03 0.  1.
         11   -1    0    0    0    0 -0.00000000000E+00 -0.00000000000E+00 -0.50000499739E+01  0.50000500000E+01  0.51100000000E-03 0. -1.
         50    1    1    2    0    0  0.16129969092E-01  0.69096134602E-02 -0.13859431406E-01  0.50000500000E+01  0.50000000000E+01 0. -1.
         50    1    1    2    0    0 -0.16129969092E-01 -0.69096134602E-02  0.13859431406E-01  0.50000500000E+01  0.50000000000E+01 0.  1.
</event>
<event>
 4    1  0.4944208E-021  0.5000050E+01  0.7818608E-02  0.2136455E+00
        -11   -1    0    0    0    0  0.00000000000E+00  0.00000000000E+00  0.50000499739E+01  0.50000500000E+01  0.51100000000E-03 0. -1.
         11   -1    0    0    0    0 -0.00000000000E+00 -0.00000000000E+00 -0.50000499739E+01  0.50000500000E+01  0.51100000000E-03 0.  1.
         50    1    1    2    0    0  0.15310313759E-01 -0.70030493603E-02 -0.14715776984E-01  0.50000500000E+01  0.50000000000E+01 0.  1.
         50    1    1    2    0    0 -0.15310313759E-01  0.70030493603E-02  0.14715776984E-01  0.50000500000E+01  0.50000000000E+01 0. -1.
</event>
<event>
 4    1  0.4944208E-021  0.5000050E+01  0.7818608E-02  0.2136455E+00
        -11   -1    0    0    0    0  0.00000000000E+00  0.00000000000E+00  0.50000499739E+01  0.50000500000E+01  0.51100000000E-03 0.  1.
         11   -1    0    0    0    0 -0.00000000000E+00 -0.00000000000E+00 -0.50000499739E+01  0.50000500000E+01  0.51100000000E-03 0. -1.
         50    1    1    2    0    0  0.89204498799E-02  0.16890777341E-01 -0.11624530733E-01  0.50000500000E+01  0.50000000000E+01 0. -1.
         50    1    1    2    0    0 -0.89204498799E-02 -0.16890777341E-01  0.11624530733E-01  0.50000500000E+01  0.50000000000E+01 0.  1.
</event>
<event>
 4    1  0.4944208E-021  0.5000050E+01  0.7818608E-02  0.2136455E+00
        -11   -1    0    0    0    0  0.00000000000E+00  0.00000000000E+00  0.50000499739E+01  0.50000500000E+01  0.51100000000E-03 0.  1.
         11   -1    0    0    0    0 -0.00000000000E+00 -0.00000000000E+00 -0.50000499739E+01  0.50000500000E+01  0.51100000000E-03 0. -1.
         50    1    1    2    0    0  0.12374679119E-01  0.16204938690E-01  0.91798572297E-02  0.50000500000E+01  0.50000000000E+01 0.  0.
         50    1    1    2    0    0 -0.12374679119E-01 -0.16204938690E-01 -0.91798572297E-02  0.50000500000E+01  0.50000000000E+01 0.  1.
</event>
<event>
 4    1  0.4944208E-021  0.5000050E+01  0.7818608E-02  0.2136455E+00
        -11   -1    0    0    0    0  0.00000000000E+00  0.00000000000E+00  0.50000499739E+01  0.50000500000E+01  0.51100000000E-03 0.  1.
         11   -1    0    0    0    0 -0.00000000000E+00 -0.00000000000E+00 -0.50000499739E+01  0.50000500000E+01  0.51100000000E-03 0. -1.
         50    1    1    2    0    0 -0.11343351326E-01  0.19267960023E-01  0.27676205899E-03  0.50000500000E+01  0.50000000000E+01 0.  0.
         50    1    1    2    0    0  0.11343351326E-01 -0.19267960023E-01 -0.27676205899E-03  0.50000500000E+01  0.50000000000E+01 0.  1.
</event>
<event>
 4    1  0.4944208E-021  0.5000050E+01  0.7818608E-02  0.2136455E+00
        -11   -1    0    0    0    0  0.00000000000E+00  0.00000000000E+00  0.50000499739E+01  0.50000500000E+01  0.51100000000E-03 0. -1.
         11   -1    0    0    0    0 -0.00000000000E+00 -0.00000000000E+00 -0.50000499739E+01  0.50000500000E+01  0.51100000000E-03 0.  1.
         50    1    1    2    0    0 -0.21772465748E-01  0.50864807803E-02  0.29991415531E-03  0.50000500000E+01  0.50000000000E+01 0. -1.
         50    1    1    2    0    0  0.21772465748E-01 -0.50864807803E-02 -0.29991415531E-03  0.50000500000E+01  0.50000000000E+01 0.  1.
</event>
<event>
 4    1  0.4944208E-021  0.5000050E+01  0.7818608E-02  0.2136455E+00
        -11   -1    0    0    0    0  0.00000000000E+00  0.00000000000E+00  0.50000499739E+01  0.50000500000E+01  0.51100000000E-03 0. -1.
         11   -1    0    0    0    0 -0.00000000000E+00 -0.00000000000E+00 -0.50000499739E+01  0.50000500000E+01  0.51100000000E-03 0.  1.
         50    1    1    2    0    0  0.12786675325E-01 -0.95094003589E-03 -0.18319365360E-01  0.50000500000E+01  0.50000000000E+01 0.  1.
         50    1    1    2    0    0 -0.12786675325E-01  0.95094003589E-03  0.18319365360E-01  0.50000500000E+01  0.50000000000E+01 0. -1.
</event>
<event>
 4    1  0.4944208E-021  0.5000050E+01  0.7818608E-02  0.2136455E+00
        -11   -1    0    0    0    0  0.00000000000E+00  0.00000000000E+00  0.50000499739E+01  0.50000500000E+01  0.51100000000E-03 0. -1.
         11   -1    0    0    0    0 -0.00000000000E+00 -0.00000000000E+00 -0.50000499739E+01  0.50000500000E+01  0.51100000000E-03 0.  1.
         50    1    1    2    0    0 -0.13226802194E-01  0.15299346177E-01 -0.95385643716E-02  0.50000500000E+01  0.50000000000E+01 0. -1.
         50    1    1    2    0    0  0.13226802194E-01 -0.15299346177E-01  0.95385643716E-02  0.50000500000E+01  0.50000000000E+01 0.  0.
</event>
<event>
 4    1  0.4944208E-021  0.5000050E+01  0.7818608E-02  0.2136455E+00
        -11   -1    0    0    0    0  0.00000000000E+00  0.00000000000E+00  0.50000499739E+01  0.50000500000E+01  0.51100000000E-03 0.  1.
         11   -1    0    0    0    0 -0.00000000000E+00 -0.00000000000E+00 -0.50000499739E+01  0.50000500000E+01  0.51100000000E-03 0. -1.
         50    1    1    2    0    0 -0.83349857703E-02  0.18421194983E-01 -0.95493501135E-02  0.50000500000E+01  0.50000000000E+01 0.  1.
         50    1    1    2    0    0  0.83349857703E-02 -0.18421194983E-01  0.95493501135E-02  0.50000500000E+01  0.50000000000E+01 0. -1.
</event>
<event>
 4    1  0.4944208E-021  0.5000050E+01  0.7818608E-02  0.2136455E+00
        -11   -1    0    0    0    0  0.00000000000E+00  0.00000000000E+00  0.50000499739E+01  0.50000500000E+01  0.51100000000E-03 0. -1.
         11   -1    0    0    0    0 -0.00000000000E+00 -0.00000000000E+00 -0.50000499739E+01  0.50000500000E+01  0.51100000000E-03 0.  1.
         50    1    1    2    0    0  0.10574906970E-01 -0.14803687290E-01  0.13000949396E-01  0.50000500000E+01  0.50000000000E+01 0. -1.
         50    1    1    2    0    0 -0.10574906970E-01  0.14803687290E-01 -0.13000949396E-01  0.50000500000E+01  0.50000000000E+01 0.  1.
</event>
<event>
 4    1  0.4944208E-021  0.5000050E+01  0.7818608E-02  0.2136455E+00
        -11   -1    0    0    0    0  0.00000000000E+00  0.00000000000E+00  0.50000499739E+01  0.50000500000E+01  0.51100000000E-03 0. -1.
         11   -1    0    0    0    0 -0.00000000000E+00 -0.00000000000E+00 -0.50000499739E+01  0.50000500000E+01  0.51100000000E-03 0.  1.
         50    1    1    2    0    0 -0.39896559024E-02  0.15037627420E-01  0.16060974670E-01  0.50000500000E+01  0.50000000000E+01 0. -1.
         50    1    1    2    0    0  0.39896559024E-02 -0.15037627420E-01 -0.16060974670E-01  0.50000500000E+01  0.50000000000E+01 0.  0.
</event>
<event>
 4    1  0.4944208E-021  0.5000050E+01  0.7818608E-02  0.2136455E+00
        -11   -1    0    0    0    0  0.00000000000E+00  0.00000000000E+00  0.50000499739E+01  0.50000500000E+01  0.51100000000E-03 0. -1.
         11   -1    0    0    0    0 -0.00000000000E+00 -0.00000000000E+00 -0.50000499739E+01  0.50000500000E+01  0.51100000000E-03 0.  1.
         50    1    1    2    0    0  0.11259660174E-01 -0.17784758682E-01 -0.75448599324E-02  0.50000500000E+01  0.50000000000E+01 0.  0.
         50    1    1    2    0    0 -0.11259660174E-01  0.17784758682E-01  0.75448599324E-02  0.50000500000E+01  0.50000000000E+01 0.  0.
</event>
<event>
 4    1  0.4944208E-021  0.5000050E+01  0.7818608E-02  0.2136455E+00
        -11   -1    0    0    0    0  0.00000000000E+00  0.00000000000E+00  0.50000499739E+01  0.50000500000E+01  0.51100000000E-03 0.  1.
         11   -1    0    0    0    0 -0.00000000000E+00 -0.00000000000E+00 -0.50000499739E+01  0.50000500000E+01  0.51100000000E-03 0. -1.
         50    1    1    2    0    0 -0.22161586323E-01  0.29618927753E-02  0.30623983968E-03  0.50000500000E+01  0.50000000000E+01 0. -1.
         50    1    1    2    0    0  0.22161586323E-01 -0.29618927753E-02 -0.30623983968E-03  0.50000500000E+01  0.50000000000E+01 0.  1.
</event>
<event>
 4    1  0.4944208E-021  0.5000050E+01  0.7818608E-02  0.2136455E+00
        -11   -1    0    0    0    0  0.00000000000E+00  0.00000000000E+00  0.50000499739E+01  0.50000500000E+01  0.51100000000E-03 0. -1.
         11   -1    0    0    0    0 -0.00000000000E+00 -0.00000000000E+00 -0.50000499739E+01  0.50000500000E+01  0.51100000000E-03 0.  1.
         50    1    1    2    0    0 -0.10521317933E-01 -0.14447624867E-01  0.13437652497E-01  0.50000500000E+01  0.50000000000E+01 0. -1.
         50    1    1    2    0    0  0.10521317933E-01  0.14447624867E-01 -0.13437652497E-01  0.50000500000E+01  0.50000000000E+01 0.  1.
</event>
<event>
 4    1  0.4944208E-021  0.5000050E+01  0.7818608E-02  0.2136455E+00
        -11   -1    0    0    0    0  0.00000000000E+00  0.00000000000E+00  0.50000499739E+01  0.50000500000E+01  0.51100000000E-03 0. -1.
         11   -1    0    0    0    0 -0.00000000000E+00 -0.00000000000E+00 -0.50000499739E+01  0.50000500000E+01  0.51100000000E-03 0.  1.
         50    1    1    2    0    0 -0.21988613992E-01 -0.66069734507E-03  0.40083455110E-02  0.50000500000E+01  0.50000000000E+01 0.  1.
         50    1    1    2    0    0  0.21988613992E-01  0.66069734507E-03 -0.40083455110E-02  0.50000500000E+01  0.50000000000E+01 0. -1.
</event>
<event>
 4    1  0.4944208E-021  0.5000050E+01  0.7818608E-02  0.2136455E+00
        -11   -1    0    0    0    0  0.00000000000E+00  0.00000000000E+00  0.50000499739E+01  0.50000500000E+01  0.51100000000E-03 0. -1.
         11   -1    0    0    0    0 -0.00000000000E+00 -0.00000000000E+00 -0.50000499739E+01  0.50000500000E+01  0.51100000000E-03 0.  1.
         50    1    1    2    0    0  0.21269274873E-01  0.66512240109E-02  0.18389305385E-02  0.50000500000E+01  0.50000000000E+01 0. -1.
         50    1    1    2    0    0 -0.21269274873E-01 -0.66512240109E-02 -0.18389305385E-02  0.50000500000E+01  0.50000000000E+01 0.  1.
</event>
<event>
 4    1  0.4944208E-021  0.5000050E+01  0.7818608E-02  0.2136455E+00
        -11   -1    0    0    0    0  0.00000000000E+00  0.00000000000E+00  0.50000499739E+01  0.50000500000E+01  0.51100000000E-03 0. -1.
         11   -1    0    0    0    0 -0.00000000000E+00 -0.00000000000E+00 -0.50000499739E+01  0.50000500000E+01  0.51100000000E-03 0.  1.
         50    1    1    2    0    0 -0.16650556005E-01  0.75485405065E-03 -0.14906095400E-01  0.50000500000E+01  0.50000000000E+01 0.  1.
         50    1    1    2    0    0  0.16650556005E-01 -0.75485405065E-03  0.14906095400E-01  0.50000500000E+01  0.50000000000E+01 0. -1.
</event>
<event>
 4    1  0.4944208E-021  0.5000050E+01  0.7818608E-02  0.2136455E+00
        -11   -1    0    0    0    0  0.00000000000E+00  0.00000000000E+00  0.50000499739E+01  0.50000500000E+01  0.51100000000E-03 0. -1.
         11   -1    0    0    0    0 -0.00000000000E+00 -0.00000000000E+00 -0.50000499739E+01  0.50000500000E+01  0.51100000000E-03 0.  1.
         50    1    1    2    0    0 -0.10090578926E-01 -0.15004071268E-01  0.13155248470E-01  0.50000500000E+01  0.50000000000E+01 0. -1.
         50    1    1    2    0    0  0.10090578926E-01  0.15004071268E-01 -0.13155248470E-01  0.50000500000E+01  0.50000000000E+01 0.  1.
</event>
<event>
 4    1  0.4944208E-021  0.5000050E+01  0.7818608E-02  0.2136455E+00
        -11   -1    0    0    0    0  0.00000000000E+00  0.00000000000E+00  0.50000499739E+01  0.50000500000E+01  0.51100000000E-03 0. -1.
         11   -1    0    0    0    0 -0.00000000000E+00 -0.00000000000E+00 -0.50000499739E+01  0.50000500000E+01  0.51100000000E-03 0.  1.
         50    1    1    2    0    0 -0.17564361273E-01  0.91911130456E-02 -0.10345006237E-01  0.50000500000E+01  0.50000000000E+01 0.  1.
         50    1    1    2    0    0  0.17564361273E-01 -0.91911130456E-02  0.10345006237E-01  0.50000500000E+01  0.50000000000E+01 0. -1.
</event>
<event>
 4    1  0.4944208E-021  0.5000050E+01  0.7818608E-02  0.2136455E+00
        -11   -1    0    0    0    0  0.00000000000E+00  0.00000000000E+00  0.50000499739E+01  0.50000500000E+01  0.51100000000E-03 0. -1.
         11   -1    0    0    0    0 -0.00000000000E+00 -0.00000000000E+00 -0.50000499739E+01  0.50000500000E+01  0.51100000000E-03 0.  1.
         50    1    1    2    0    0 -0.22367997703E-02 -0.16047623536E-01  0.15410159169E-01  0.50000500000E+01  0.50000000000E+01 0. -1.
         50    1    1    2    0    0  0.22367997703E-02  0.16047623536E-01 -0.15410159169E-01  0.50000500000E+01  0.50000000000E+01 0.  1.
</event>
<event>
 4    1  0.4944208E-021  0.5000050E+01  0.7818608E-02  0.2136455E+00
        -11   -1    0    0    0    0  0.00000000000E+00  0.00000000000E+00  0.50000499739E+01  0.50000500000E+01  0.51100000000E-03 0. -1.
         11   -1    0    0    0    0 -0.00000000000E+00 -0.00000000000E+00 -0.50000499739E+01  0.50000500000E+01  0.51100000000E-03 0.  1.
         50    1    1    2    0    0  0.45571457003E-02  0.46438704444E-02  0.21393208978E-01  0.50000500000E+01  0.50000000000E+01 0.  1.
         50    1    1    2    0    0 -0.45571457003E-02 -0.46438704444E-02 -0.21393208978E-01  0.50000500000E+01  0.50000000000E+01 0.  1.
</event>
<event>
 4    1  0.4944208E-021  0.5000050E+01  0.7818608E-02  0.2136455E+00
        -11   -1    0    0    0    0  0.00000000000E+00  0.00000000000E+00  0.50000499739E+01  0.50000500000E+01  0.51100000000E-03 0. -1.
         11   -1    0    0    0    0 -0.00000000000E+00 -0.00000000000E+00 -0.50000499739E+01  0.50000500000E+01  0.51100000000E-03 0.  1.
         50    1    1    2    0    0 -0.66294518667E-02  0.20388829851E-01 -0.63520457542E-02  0.50000500000E+01  0.50000000000E+01 0.  0.
         50    1    1    2    0    0  0.66294518667E-02 -0.20388829851E-01  0.63520457542E-02  0.50000500000E+01  0.50000000000E+01 0.  1.
</event>
<event>
 4    1  0.4944208E-021  0.5000050E+01  0.7818608E-02  0.2136455E+00
        -11   -1    0    0    0    0  0.00000000000E+00  0.00000000000E+00  0.50000499739E+01  0.50000500000E+01  0.51100000000E-03 0. -1.
         11   -1    0    0    0    0 -0.00000000000E+00 -0.00000000000E+00 -0.50000499739E+01  0.50000500000E+01  0.51100000000E-03 0.  1.
         50    1    1    2    0    0  0.42484067080E-02 -0.81432926326E-02  0.20387258902E-01  0.50000500000E+01  0.50000000000E+01 0.  0.
         50    1    1    2    0    0 -0.42484067080E-02  0.81432926326E-02 -0.20387258902E-01  0.50000500000E+01  0.50000000000E+01 0.  1.
</event>
<event>
 4    1  0.4944208E-021  0.5000050E+01  0.7818608E-02  0.2136455E+00
        -11   -1    0    0    0    0  0.00000000000E+00  0.00000000000E+00  0.50000499739E+01  0.50000500000E+01  0.51100000000E-03 0. -1.
         11   -1    0    0    0    0 -0.00000000000E+00 -0.00000000000E+00 -0.50000499739E+01  0.50000500000E+01  0.51100000000E-03 0.  1.
         50    1    1    2    0    0  0.54773782284E-02 -0.19962637387E-01  0.84554086997E-02  0.50000500000E+01  0.50000000000E+01 0. -1.
         50    1    1    2    0    0 -0.54773782284E-02  0.19962637387E-01 -0.84554086997E-02  0.50000500000E+01  0.50000000000E+01 0.  1.
</event>
<event>
 4    1  0.4944208E-021  0.5000050E+01  0.7818608E-02  0.2136455E+00
        -11   -1    0    0    0    0  0.00000000000E+00  0.00000000000E+00  0.50000499739E+01  0.50000500000E+01  0.51100000000E-03 0. -1.
         11   -1    0    0    0    0 -0.00000000000E+00 -0.00000000000E+00 -0.50000499739E+01  0.50000500000E+01  0.51100000000E-03 0.  1.
         50    1    1    2    0    0 -0.19271974683E-01  0.11140482196E-01  0.21173446222E-02  0.50000500000E+01  0.50000000000E+01 0. -1.
         50    1    1    2    0    0  0.19271974683E-01 -0.11140482196E-01 -0.21173446222E-02  0.50000500000E+01  0.50000000000E+01 0.  1.
</event>
<event>
 4    1  0.4944208E-021  0.5000050E+01  0.7818608E-02  0.2136455E+00
        -11   -1    0    0    0    0  0.00000000000E+00  0.00000000000E+00  0.50000499739E+01  0.50000500000E+01  0.51100000000E-03 0. -1.
         11   -1    0    0    0    0 -0.00000000000E+00 -0.00000000000E+00 -0.50000499739E+01  0.50000500000E+01  0.51100000000E-03 0.  1.
         50    1    1    2    0    0 -0.39920797330E-02  0.21982703113E-01 -0.90915524518E-03  0.50000500000E+01  0.50000000000E+01 0. -1.
         50    1    1    2    0    0  0.39920797330E-02 -0.21982703113E-01  0.90915524518E-03  0.50000500000E+01  0.50000000000E+01 0.  1.
</event>
<event>
 4    1  0.4944208E-021  0.5000050E+01  0.7818608E-02  0.2136455E+00
        -11   -1    0    0    0    0  0.00000000000E+00  0.00000000000E+00  0.50000499739E+01  0.50000500000E+01  0.51100000000E-03 0.  1.
         11   -1    0    0    0    0 -0.00000000000E+00 -0.00000000000E+00 -0.50000499739E+01  0.50000500000E+01  0.51100000000E-03 0. -1.
         50    1    1    2    0    0  0.83520395682E-02  0.19087435117E-01  0.81188518707E-02  0.50000500000E+01  0.50000000000E+01 0.  1.
         50    1    1    2    0    0 -0.83520395682E-02 -0.19087435117E-01 -0.81188518707E-02  0.50000500000E+01  0.50000000000E+01 0. -1.
</event>
<event>
 4    1  0.4944208E-021  0.5000050E+01  0.7818608E-02  0.2136455E+00
        -11   -1    0    0    0    0  0.00000000000E+00  0.00000000000E+00  0.50000499739E+01  0.50000500000E+01  0.51100000000E-03 0. -1.
         11   -1    0    0    0    0 -0.00000000000E+00 -0.00000000000E+00 -0.50000499739E+01  0.50000500000E+01  0.51100000000E-03 0.  1.
         50    1    1    2    0    0 -0.18076669095E-01 -0.13078122347E-01 -0.14829869568E-02  0.50000500000E+01  0.50000000000E+01 0.  0.
         50    1    1    2    0    0  0.18076669095E-01  0.13078122347E-01  0.14829869568E-02  0.50000500000E+01  0.50000000000E+01 0.  1.
</event>
<event>
 4    1  0.4944208E-021  0.5000050E+01  0.7818608E-02  0.2136455E+00
        -11   -1    0    0    0    0  0.00000000000E+00  0.00000000000E+00  0.50000499739E+01  0.50000500000E+01  0.51100000000E-03 0.  1.
         11   -1    0    0    0    0 -0.00000000000E+00 -0.00000000000E+00 -0.50000499739E+01  0.50000500000E+01  0.51100000000E-03 0. -1.
         50    1    1    2    0    0 -0.90955293219E-03  0.16639611488E-01  0.14909679507E-01  0.50000500000E+01  0.50000000000E+01 0.  0.
         50    1    1    2    0    0  0.90955293219E-03 -0.16639611488E-01 -0.14909679507E-01  0.50000500000E+01  0.50000000000E+01 0.  0.
</event>
<event>
 4    1  0.4944208E-021  0.5000050E+01  0.7818608E-02  0.2136455E+00
        -11   -1    0    0    0    0  0.00000000000E+00  0.00000000000E+00  0.50000499739E+01  0.50000500000E+01  0.51100000000E-03 0. -1.
         11   -1    0    0    0    0 -0.00000000000E+00 -0.00000000000E+00 -0.50000499739E+01  0.50000500000E+01  0.51100000000E-03 0.  1.
         50    1    1    2    0    0 -0.21063370778E-01 -0.19254974884E-02  0.72546103201E-02  0.50000500000E+01  0.50000000000E+01 0. -1.
         50    1    1    2    0    0  0.21063370778E-01  0.19254974884E-02 -0.72546103201E-02  0.50000500000E+01  0.50000000000E+01 0.  1.
</event>
<event>
 4    1  0.4944208E-021  0.5000050E+01  0.7818608E-02  0.2136455E+00
        -11   -1    0    0    0    0  0.00000000000E+00  0.00000000000E+00  0.50000499739E+01  0.50000500000E+01  0.51100000000E-03 0.  1.
         11   -1    0    0    0    0 -0.00000000000E+00 -0.00000000000E+00 -0.50000499739E+01  0.50000500000E+01  0.51100000000E-03 0. -1.
         50    1    1    2    0    0  0.20081786460E-01  0.88809891455E-02  0.42252082048E-02  0.50000500000E+01  0.50000000000E+01 0.  1.
         50    1    1    2    0    0 -0.20081786460E-01 -0.88809891455E-02 -0.42252082048E-02  0.50000500000E+01  0.50000000000E+01 0.  0.
</event>
<event>
 4    1  0.4944208E-021  0.5000050E+01  0.7818608E-02  0.2136455E+00
        -11   -1    0    0    0    0  0.00000000000E+00  0.00000000000E+00  0.50000499739E+01  0.50000500000E+01  0.51100000000E-03 0.  1.
         11   -1    0    0    0    0 -0.00000000000E+00 -0.00000000000E+00 -0.50000499739E+01  0.50000500000E+01  0.51100000000E-03 0. -1.
         50    1    1    2    0    0  0.19280629421E-01  0.10835351532E-01  0.32946906246E-02  0.50000500000E+01  0.50000000000E+01 0. -1.
         50    1    1    2    0    0 -0.19280629421E-01 -0.10835351532E-01 -0.32946906246E-02  0.50000500000E+01  0.50000000000E+01 0.  1.
</event>
<event>
 4    1  0.4944208E-021  0.5000050E+01  0.7818608E-02  0.2136455E+00
        -11   -1    0    0    0    0  0.00000000000E+00  0.00000000000E+00  0.50000499739E+01  0.50000500000E+01  0.51100000000E-03 0.  1.
         11   -1    0    0    0    0 -0.00000000000E+00 -0.00000000000E+00 -0.50000499739E+01  0.50000500000E+01  0.51100000000E-03 0. -1.
         50    1    1    2    0    0 -0.48069448897E-02  0.16309200875E-01  0.14522594384E-01  0.50000500000E+01  0.50000000000E+01 0.  1.
         50    1    1    2    0    0  0.48069448897E-02 -0.16309200875E-01 -0.14522594384E-01  0.50000500000E+01  0.50000000000E+01 0. -1.
</event>
<event>
 4    1  0.4944208E-021  0.5000050E+01  0.7818608E-02  0.2136455E+00
        -11   -1    0    0    0    0  0.00000000000E+00  0.00000000000E+00  0.50000499739E+01  0.50000500000E+01  0.51100000000E-03 0.  1.
         11   -1    0    0    0    0 -0.00000000000E+00 -0.00000000000E+00 -0.50000499739E+01  0.50000500000E+01  0.51100000000E-03 0. -1.
         50    1    1    2    0    0  0.21108259753E-01  0.50669442498E-02 -0.53637623130E-02  0.50000500000E+01  0.50000000000E+01 0. -1.
         50    1    1    2    0    0 -0.21108259753E-01 -0.50669442498E-02  0.53637623130E-02  0.50000500000E+01  0.50000000000E+01 0.  1.
</event>
<event>
 4    1  0.4944208E-021  0.5000050E+01  0.7818608E-02  0.2136455E+00
        -11   -1    0    0    0    0  0.00000000000E+00  0.00000000000E+00  0.50000499739E+01  0.50000500000E+01  0.51100000000E-03 0.  1.
         11   -1    0    0    0    0 -0.00000000000E+00 -0.00000000000E+00 -0.50000499739E+01  0.50000500000E+01  0.51100000000E-03 0. -1.
         50    1    1    2    0    0 -0.12679846962E-01 -0.16855260051E-01  0.74245666298E-02  0.50000500000E+01  0.50000000000E+01 0. -1.
         50    1    1    2    0    0  0.12679846962E-01  0.16855260051E-01 -0.74245666298E-02  0.50000500000E+01  0.50000000000E+01 0.  1.
</event>
<event>
 4    1  0.4944208E-021  0.5000050E+01  0.7818608E-02  0.2136455E+00
        -11   -1    0    0    0    0  0.00000000000E+00  0.00000000000E+00  0.50000499739E+01  0.50000500000E+01  0.51100000000E-03 0. -1.
         11   -1    0    0    0    0 -0.00000000000E+00 -0.00000000000E+00 -0.50000499739E+01  0.50000500000E+01  0.51100000000E-03 0.  1.
         50    1    1    2    0    0 -0.15066728735E-01  0.59477875144E-03 -0.16511887338E-01  0.50000500000E+01  0.50000000000E+01 0.  0.
         50    1    1    2    0    0  0.15066728735E-01 -0.59477875144E-03  0.16511887338E-01  0.50000500000E+01  0.50000000000E+01 0.  0.
</event>
<event>
 4    1  0.4944208E-021  0.5000050E+01  0.7818608E-02  0.2136455E+00
        -11   -1    0    0    0    0  0.00000000000E+00  0.00000000000E+00  0.50000499739E+01  0.50000500000E+01  0.51100000000E-03 0.  1.
         11   -1    0    0    0    0 -0.00000000000E+00 -0.00000000000E+00 -0.50000499739E+01  0.50000500000E+01  0.51100000000E-03 0. -1.
         50    1    1    2    0    0 -0.21936740994E-02  0.16972526165E-01  0.14391791046E-01  0.50000500000E+01  0.50000000000E+01 0.  1.
         50    1    1    2    0    0  0.21936740994E-02 -0.16972526165E-01 -0.14391791046E-01  0.50000500000E+01  0.50000000000E+01 0. -1.
</event>
<event>
 4    1  0.4944208E-021  0.5000050E+01  0.7818608E-02  0.2136455E+00
        -11   -1    0    0    0    0  0.00000000000E+00  0.00000000000E+00  0.50000499739E+01  0.50000500000E+01  0.51100000000E-03 0.  1.
         11   -1    0    0    0    0 -0.00000000000E+00 -0.00000000000E+00 -0.50000499739E+01  0.50000500000E+01  0.51100000000E-03 0. -1.
         50    1    1    2    0    0  0.11324159991E-01 -0.18885769906E-01 -0.38850476924E-02  0.50000500000E+01  0.50000000000E+01 0.  0.
         50    1    1    2    0    0 -0.11324159991E-01  0.18885769906E-01  0.38850476924E-02  0.50000500000E+01  0.50000000000E+01 0.  1.
</event>
<event>
 4    1  0.4944208E-021  0.5000050E+01  0.7818608E-02  0.2136455E+00
        -11   -1    0    0    0    0  0.00000000000E+00  0.00000000000E+00  0.50000499739E+01  0.50000500000E+01  0.51100000000E-03 0. -1.
         11   -1    0    0    0    0 -0.00000000000E+00 -0.00000000000E+00 -0.50000499739E+01  0.50000500000E+01  0.51100000000E-03 0.  1.
         50    1    1    2    0    0  0.20535841265E-01  0.78144377974E-02 -0.41492511908E-02  0.50000500000E+01  0.50000000000E+01 0.  0.
         50    1    1    2    0    0 -0.20535841265E-01 -0.78144377974E-02  0.41492511908E-02  0.50000500000E+01  0.50000000000E+01 0.  0.
</event>
<event>
 4    1  0.4944208E-021  0.5000050E+01  0.7818608E-02  0.2136455E+00
        -11   -1    0    0    0    0  0.00000000000E+00  0.00000000000E+00  0.50000499739E+01  0.50000500000E+01  0.51100000000E-03 0. -1.
         11   -1    0    0    0    0 -0.00000000000E+00 -0.00000000000E+00 -0.50000499739E+01  0.50000500000E+01  0.51100000000E-03 0.  1.
         50    1    1    2    0    0 -0.13597226038E-01  0.17483362744E-01  0.30740805523E-02  0.50000500000E+01  0.50000000000E+01 0. -1.
         50    1    1    2    0    0  0.13597226038E-01 -0.17483362744E-01 -0.30740805523E-02  0.50000500000E+01  0.50000000000E+01 0.  1.
</event>
<event>
 4    1  0.4944208E-021  0.5000050E+01  0.7818608E-02  0.2136455E+00
        -11   -1    0    0    0    0  0.00000000000E+00  0.00000000000E+00  0.50000499739E+01  0.50000500000E+01  0.51100000000E-03 0.  1.
         11   -1    0    0    0    0 -0.00000000000E+00 -0.00000000000E+00 -0.50000499739E+01  0.50000500000E+01  0.51100000000E-03 0. -1.
         50    1    1    2    0    0 -0.16372996850E-01  0.84805945480E-02  0.12649386952E-01  0.50000500000E+01  0.50000000000E+01 0. -1.
         50    1    1    2    0    0  0.16372996850E-01 -0.84805945480E-02 -0.12649386952E-01  0.50000500000E+01  0.50000000000E+01 0.  0.
</event>
<event>
 4    1  0.4944208E-021  0.5000050E+01  0.7818608E-02  0.2136455E+00
        -11   -1    0    0    0    0  0.00000000000E+00  0.00000000000E+00  0.50000499739E+01  0.50000500000E+01  0.51100000000E-03 0.  1.
         11   -1    0    0    0    0 -0.00000000000E+00 -0.00000000000E+00 -0.50000499739E+01  0.50000500000E+01  0.51100000000E-03 0. -1.
         50    1    1    2    0    0  0.22155268643E-01  0.14160273294E-02  0.26723468966E-02  0.50000500000E+01  0.50000000000E+01 0.  1.
         50    1    1    2    0    0 -0.22155268643E-01 -0.14160273294E-02 -0.26723468966E-02  0.50000500000E+01  0.50000000000E+01 0. -1.
</event>
<event>
 4    1  0.4944208E-021  0.5000050E+01  0.7818608E-02  0.2136455E+00
        -11   -1    0    0    0    0  0.00000000000E+00  0.00000000000E+00  0.50000499739E+01  0.50000500000E+01  0.51100000000E-03 0.  1.
         11   -1    0    0    0    0 -0.00000000000E+00 -0.00000000000E+00 -0.50000499739E+01  0.50000500000E+01  0.51100000000E-03 0. -1.
         50    1    1    2    0    0  0.18303827245E-01 -0.58762025518E-02  0.11421149318E-01  0.50000500000E+01  0.50000000000E+01 0. -1.
         50    1    1    2    0    0 -0.18303827245E-01  0.58762025518E-02 -0.11421149318E-01  0.50000500000E+01  0.50000000000E+01 0.  0.
</event>
<event>
 4    1  0.4944208E-021  0.5000050E+01  0.7818608E-02  0.2136455E+00
        -11   -1    0    0    0    0  0.00000000000E+00  0.00000000000E+00  0.50000499739E+01  0.50000500000E+01  0.51100000000E-03 0.  1.
         11   -1    0    0    0    0 -0.00000000000E+00 -0.00000000000E+00 -0.50000499739E+01  0.50000500000E+01  0.51100000000E-03 0. -1.
         50    1    1    2    0    0 -0.64051035241E-02  0.11070479831E-01 -0.18341799943E-01  0.50000500000E+01  0.50000000000E+01 0. -1.
         50    1    1    2    0    0  0.64051035241E-02 -0.11070479831E-01  0.18341799943E-01  0.50000500000E+01  0.50000000000E+01 0.  0.
</event>
<event>
 4    1  0.4944208E-021  0.5000050E+01  0.7818608E-02  0.2136455E+00
        -11   -1    0    0    0    0  0.00000000000E+00  0.00000000000E+00  0.50000499739E+01  0.50000500000E+01  0.51100000000E-03 0.  1.
         11   -1    0    0    0    0 -0.00000000000E+00 -0.00000000000E+00 -0.50000499739E+01  0.50000500000E+01  0.51100000000E-03 0. -1.
         50    1    1    2    0    0 -0.13115728417E-01 -0.16895959484E-01 -0.65197178762E-02  0.50000500000E+01  0.50000000000E+01 0.  0.
         50    1    1    2    0    0  0.13115728417E-01  0.16895959484E-01  0.65197178762E-02  0.50000500000E+01  0.50000000000E+01 0. -1.
</event>
<event>
 4    1  0.4944208E-021  0.5000050E+01  0.7818608E-02  0.2136455E+00
        -11   -1    0    0    0    0  0.00000000000E+00  0.00000000000E+00  0.50000499739E+01  0.50000500000E+01  0.51100000000E-03 0. -1.
         11   -1    0    0    0    0 -0.00000000000E+00 -0.00000000000E+00 -0.50000499739E+01  0.50000500000E+01  0.51100000000E-03 0.  1.
         50    1    1    2    0    0  0.20456613803E-01 -0.90181240617E-02  0.45043326777E-03  0.50000500000E+01  0.50000000000E+01 0. -1.
         50    1    1    2    0    0 -0.20456613803E-01  0.90181240617E-02 -0.45043326777E-03  0.50000500000E+01  0.50000000000E+01 0.  1.
</event>
<event>
 4    1  0.4944208E-021  0.5000050E+01  0.7818608E-02  0.2136455E+00
        -11   -1    0    0    0    0  0.00000000000E+00  0.00000000000E+00  0.50000499739E+01  0.50000500000E+01  0.51100000000E-03 0.  1.
         11   -1    0    0    0    0 -0.00000000000E+00 -0.00000000000E+00 -0.50000499739E+01  0.50000500000E+01  0.51100000000E-03 0. -1.
         50    1    1    2    0    0  0.15212921589E-01  0.13337752105E-01 -0.95222836287E-02  0.50000500000E+01  0.50000000000E+01 0. -1.
         50    1    1    2    0    0 -0.15212921589E-01 -0.13337752105E-01  0.95222836287E-02  0.50000500000E+01  0.50000000000E+01 0.  1.
</event>
<event>
 4    1  0.4944208E-021  0.5000050E+01  0.7818608E-02  0.2136455E+00
        -11   -1    0    0    0    0  0.00000000000E+00  0.00000000000E+00  0.50000499739E+01  0.50000500000E+01  0.51100000000E-03 0. -1.
         11   -1    0    0    0    0 -0.00000000000E+00 -0.00000000000E+00 -0.50000499739E+01  0.50000500000E+01  0.51100000000E-03 0.  1.
         50    1    1    2    0    0 -0.13624598301E-01 -0.25066629141E-02 -0.17552477380E-01  0.50000500000E+01  0.50000000000E+01 0.  0.
         50    1    1    2    0    0  0.13624598301E-01  0.25066629141E-02  0.17552477380E-01  0.50000500000E+01  0.50000000000E+01 0.  0.
</event>
<event>
 4    1  0.4944208E-021  0.5000050E+01  0.7818608E-02  0.2136455E+00
        -11   -1    0    0    0    0  0.00000000000E+00  0.00000000000E+00  0.50000499739E+01  0.50000500000E+01  0.51100000000E-03 0. -1.
         11   -1    0    0    0    0 -0.00000000000E+00 -0.00000000000E+00 -0.50000499739E+01  0.50000500000E+01  0.51100000000E-03 0.  1.
         50    1    1    2    0    0 -0.86365267061E-02  0.16182193018E-01 -0.12788648700E-01  0.50000500000E+01  0.50000000000E+01 0.  0.
         50    1    1    2    0    0  0.86365267061E-02 -0.16182193018E-01  0.12788648700E-01  0.50000500000E+01  0.50000000000E+01 0.  0.
</event>
<event>
 4    1  0.4944208E-021  0.5000050E+01  0.7818608E-02  0.2136455E+00
        -11   -1    0    0    0    0  0.00000000000E+00  0.00000000000E+00  0.50000499739E+01  0.50000500000E+01  0.51100000000E-03 0.  1.
         11   -1    0    0    0    0 -0.00000000000E+00 -0.00000000000E+00 -0.50000499739E+01  0.50000500000E+01  0.51100000000E-03 0. -1.
         50    1    1    2    0    0  0.15224499424E-01  0.13916799567E-01 -0.86336439062E-02  0.50000500000E+01  0.50000000000E+01 0.  1.
         50    1    1    2    0    0 -0.15224499424E-01 -0.13916799567E-01  0.86336439062E-02  0.50000500000E+01  0.50000000000E+01 0.  0.
</event>
<event>
 4    1  0.4944208E-021  0.5000050E+01  0.7818608E-02  0.2136455E+00
        -11   -1    0    0    0    0  0.00000000000E+00  0.00000000000E+00  0.50000499739E+01  0.50000500000E+01  0.51100000000E-03 0.  1.
         11   -1    0    0    0    0 -0.00000000000E+00 -0.00000000000E+00 -0.50000499739E+01  0.50000500000E+01  0.51100000000E-03 0. -1.
         50    1    1    2    0    0  0.54298612837E-02 -0.21691404360E-01 -0.45643567044E-04  0.50000500000E+01  0.50000000000E+01 0. -1.
         50    1    1    2    0    0 -0.54298612837E-02  0.21691404360E-01  0.45643567044E-04  0.50000500000E+01  0.50000000000E+01 0.  0.
</event>
<event>
 4    1  0.4944208E-021  0.5000050E+01  0.7818608E-02  0.2136455E+00
        -11   -1    0    0    0    0  0.00000000000E+00  0.00000000000E+00  0.50000499739E+01  0.50000500000E+01  0.51100000000E-03 0.  1.
         11   -1    0    0    0    0 -0.00000000000E+00 -0.00000000000E+00 -0.50000499739E+01  0.50000500000E+01  0.51100000000E-03 0. -1.
         50    1    1    2    0    0 -0.15126264836E-01 -0.69875295256E-02 -0.14912177682E-01  0.50000500000E+01  0.50000000000E+01 0. -1.
         50    1    1    2    0    0  0.15126264836E-01  0.69875295256E-02  0.14912177682E-01  0.50000500000E+01  0.50000000000E+01 0.  1.
</event>
<event>
 4    1  0.4944208E-021  0.5000050E+01  0.7818608E-02  0.2136455E+00
        -11   -1    0    0    0    0  0.00000000000E+00  0.00000000000E+00  0.50000499739E+01  0.50000500000E+01  0.51100000000E-03 0. -1.
         11   -1    0    0    0    0 -0.00000000000E+00 -0.00000000000E+00 -0.50000499739E+01  0.50000500000E+01  0.51100000000E-03 0.  1.
         50    1    1    2    0    0  0.14355558987E-01  0.15260079937E-01  0.78134746738E-02  0.50000500000E+01  0.50000000000E+01 0.  1.
         50    1    1    2    0    0 -0.14355558987E-01 -0.15260079937E-01 -0.78134746738E-02  0.50000500000E+01  0.50000000000E+01 0.  0.
</event>
<event>
 4    1  0.4944208E-021  0.5000050E+01  0.7818608E-02  0.2136455E+00
        -11   -1    0    0    0    0  0.00000000000E+00  0.00000000000E+00  0.50000499739E+01  0.50000500000E+01  0.51100000000E-03 0. -1.
         11   -1    0    0    0    0 -0.00000000000E+00 -0.00000000000E+00 -0.50000499739E+01  0.50000500000E+01  0.51100000000E-03 0.  1.
         50    1    1    2    0    0 -0.18858316703E-01 -0.92747113339E-02 -0.76384632473E-02  0.50000500000E+01  0.50000000000E+01 0.  1.
         50    1    1    2    0    0  0.18858316703E-01  0.92747113339E-02  0.76384632473E-02  0.50000500000E+01  0.50000000000E+01 0. -1.
</event>
<event>
 4    1  0.4944208E-021  0.5000050E+01  0.7818608E-02  0.2136455E+00
        -11   -1    0    0    0    0  0.00000000000E+00  0.00000000000E+00  0.50000499739E+01  0.50000500000E+01  0.51100000000E-03 0.  1.
         11   -1    0    0    0    0 -0.00000000000E+00 -0.00000000000E+00 -0.50000499739E+01  0.50000500000E+01  0.51100000000E-03 0. -1.
         50    1    1    2    0    0  0.89015313536E-02 -0.71549656564E-02  0.19224247866E-01  0.50000500000E+01  0.50000000000E+01 0.  1.
         50    1    1    2    0    0 -0.89015313536E-02  0.71549656564E-02 -0.19224247866E-01  0.50000500000E+01  0.50000000000E+01 0. -1.
</event>
<event>
 4    1  0.4944208E-021  0.5000050E+01  0.7818608E-02  0.2136455E+00
        -11   -1    0    0    0    0  0.00000000000E+00  0.00000000000E+00  0.50000499739E+01  0.50000500000E+01  0.51100000000E-03 0. -1.
         11   -1    0    0    0    0 -0.00000000000E+00 -0.00000000000E+00 -0.50000499739E+01  0.50000500000E+01  0.51100000000E-03 0.  1.
         50    1    1    2    0    0 -0.20633717112E-01 -0.60638581764E-02 -0.61222415958E-02  0.50000500000E+01  0.50000000000E+01 0.  0.
         50    1    1    2    0    0  0.20633717112E-01  0.60638581764E-02  0.61222415958E-02  0.50000500000E+01  0.50000000000E+01 0.  1.
</event>
<event>
 4    1  0.4944208E-021  0.5000050E+01  0.7818608E-02  0.2136455E+00
        -11   -1    0    0    0    0  0.00000000000E+00  0.00000000000E+00  0.50000499739E+01  0.50000500000E+01  0.51100000000E-03 0. -1.
         11   -1    0    0    0    0 -0.00000000000E+00 -0.00000000000E+00 -0.50000499739E+01  0.50000500000E+01  0.51100000000E-03 0.  1.
         50    1    1    2    0    0 -0.15767207049E-01  0.92240611482E-02  0.12896293181E-01  0.50000500000E+01  0.50000000000E+01 0.  0.
         50    1    1    2    0    0  0.15767207049E-01 -0.92240611482E-02 -0.12896293181E-01  0.50000500000E+01  0.50000000000E+01 0. -1.
</event>
<event>
 4    1  0.4944208E-021  0.5000050E+01  0.7818608E-02  0.2136455E+00
        -11   -1    0    0    0    0  0.00000000000E+00  0.00000000000E+00  0.50000499739E+01  0.50000500000E+01  0.51100000000E-03 0.  1.
         11   -1    0    0    0    0 -0.00000000000E+00 -0.00000000000E+00 -0.50000499739E+01  0.50000500000E+01  0.51100000000E-03 0. -1.
         50    1    1    2    0    0  0.15697384263E-01 -0.14632414050E-01 -0.62838751060E-02  0.50000500000E+01  0.50000000000E+01 0.  1.
         50    1    1    2    0    0 -0.15697384263E-01  0.14632414050E-01  0.62838751060E-02  0.50000500000E+01  0.50000000000E+01 0. -1.
</event>
<event>
 4    1  0.4944208E-021  0.5000050E+01  0.7818608E-02  0.2136455E+00
        -11   -1    0    0    0    0  0.00000000000E+00  0.00000000000E+00  0.50000499739E+01  0.50000500000E+01  0.51100000000E-03 0. -1.
         11   -1    0    0    0    0 -0.00000000000E+00 -0.00000000000E+00 -0.50000499739E+01  0.50000500000E+01  0.51100000000E-03 0.  1.
         50    1    1    2    0    0 -0.16273821018E-01  0.43903089324E-02  0.14693210573E-01  0.50000500000E+01  0.50000000000E+01 0. -1.
         50    1    1    2    0    0  0.16273821018E-01 -0.43903089324E-02 -0.14693210573E-01  0.50000500000E+01  0.50000000000E+01 0.  1.
</event>
<event>
 4    1  0.4944208E-021  0.5000050E+01  0.7818608E-02  0.2136455E+00
        -11   -1    0    0    0    0  0.00000000000E+00  0.00000000000E+00  0.50000499739E+01  0.50000500000E+01  0.51100000000E-03 0.  1.
         11   -1    0    0    0    0 -0.00000000000E+00 -0.00000000000E+00 -0.50000499739E+01  0.50000500000E+01  0.51100000000E-03 0. -1.
         50    1    1    2    0    0  0.76498730457E-02  0.20854331269E-01 -0.25649190484E-02  0.50000500000E+01  0.50000000000E+01 0. -1.
         50    1    1    2    0    0 -0.76498730457E-02 -0.20854331269E-01  0.25649190484E-02  0.50000500000E+01  0.50000000000E+01 0.  1.
</event>
<event>
 4    1  0.4944208E-021  0.5000050E+01  0.7818608E-02  0.2136455E+00
        -11   -1    0    0    0    0  0.00000000000E+00  0.00000000000E+00  0.50000499739E+01  0.50000500000E+01  0.51100000000E-03 0.  1.
         11   -1    0    0    0    0 -0.00000000000E+00 -0.00000000000E+00 -0.50000499739E+01  0.50000500000E+01  0.51100000000E-03 0. -1.
         50    1    1    2    0    0 -0.10903921519E-01 -0.11771846227E-01  0.15573395003E-01  0.50000500000E+01  0.50000000000E+01 0. -1.
         50    1    1    2    0    0  0.10903921519E-01  0.11771846227E-01 -0.15573395003E-01  0.50000500000E+01  0.50000000000E+01 0. -1.
</event>
<event>
 4    1  0.4944208E-021  0.5000050E+01  0.7818608E-02  0.2136455E+00
        -11   -1    0    0    0    0  0.00000000000E+00  0.00000000000E+00  0.50000499739E+01  0.50000500000E+01  0.51100000000E-03 0.  1.
         11   -1    0    0    0    0 -0.00000000000E+00 -0.00000000000E+00 -0.50000499739E+01  0.50000500000E+01  0.51100000000E-03 0. -1.
         50    1    1    2    0    0  0.19025670079E-01  0.39287676508E-02 -0.11072089360E-01  0.50000500000E+01  0.50000000000E+01 0.  0.
         50    1    1    2    0    0 -0.19025670079E-01 -0.39287676508E-02  0.11072089360E-01  0.50000500000E+01  0.50000000000E+01 0. -1.
</event>
<event>
 4    1  0.4944208E-021  0.5000050E+01  0.7818608E-02  0.2136455E+00
        -11   -1    0    0    0    0  0.00000000000E+00  0.00000000000E+00  0.50000499739E+01  0.50000500000E+01  0.51100000000E-03 0. -1.
         11   -1    0    0    0    0 -0.00000000000E+00 -0.00000000000E+00 -0.50000499739E+01  0.50000500000E+01  0.51100000000E-03 0.  1.
         50    1    1    2    0    0  0.29129062056E-02 -0.17738171070E-01 -0.13299427226E-01  0.50000500000E+01  0.50000000000E+01 0.  0.
         50    1    1    2    0    0 -0.29129062056E-02  0.17738171070E-01  0.13299427226E-01  0.50000500000E+01  0.50000000000E+01 0.  0.
</event>
<event>
 4    1  0.4944208E-021  0.5000050E+01  0.7818608E-02  0.2136455E+00
        -11   -1    0    0    0    0  0.00000000000E+00  0.00000000000E+00  0.50000499739E+01  0.50000500000E+01  0.51100000000E-03 0.  1.
         11   -1    0    0    0    0 -0.00000000000E+00 -0.00000000000E+00 -0.50000499739E+01  0.50000500000E+01  0.51100000000E-03 0. -1.
         50    1    1    2    0    0  0.62522180337E-02 -0.21144462678E-01 -0.37180596699E-02  0.50000500000E+01  0.50000000000E+01 0.  0.
         50    1    1    2    0    0 -0.62522180337E-02  0.21144462678E-01  0.37180596699E-02  0.50000500000E+01  0.50000000000E+01 0. -1.
</event>
<event>
 4    1  0.4944208E-021  0.5000050E+01  0.7818608E-02  0.2136455E+00
        -11   -1    0    0    0    0  0.00000000000E+00  0.00000000000E+00  0.50000499739E+01  0.50000500000E+01  0.51100000000E-03 0.  1.
         11   -1    0    0    0    0 -0.00000000000E+00 -0.00000000000E+00 -0.50000499739E+01  0.50000500000E+01  0.51100000000E-03 0. -1.
         50    1    1    2    0    0  0.11394077205E-02 -0.21633297923E-01  0.55411795674E-02  0.50000500000E+01  0.50000000000E+01 0. -1.
         50    1    1    2    0    0 -0.11394077205E-02  0.21633297923E-01 -0.55411795674E-02  0.50000500000E+01  0.50000000000E+01 0.  1.
</event>
<event>
 4    1  0.4944208E-021  0.5000050E+01  0.7818608E-02  0.2136455E+00
        -11   -1    0    0    0    0  0.00000000000E+00  0.00000000000E+00  0.50000499739E+01  0.50000500000E+01  0.51100000000E-03 0. -1.
         11   -1    0    0    0    0 -0.00000000000E+00 -0.00000000000E+00 -0.50000499739E+01  0.50000500000E+01  0.51100000000E-03 0.  1.
         50    1    1    2    0    0  0.29128081002E-02 -0.93226457487E-02 -0.20114828491E-01  0.50000500000E+01  0.50000000000E+01 0.  1.
         50    1    1    2    0    0 -0.29128081002E-02  0.93226457487E-02  0.20114828491E-01  0.50000500000E+01  0.50000000000E+01 0. -1.
</event>
<event>
 4    1  0.4944208E-021  0.5000050E+01  0.7818608E-02  0.2136455E+00
        -11   -1    0    0    0    0  0.00000000000E+00  0.00000000000E+00  0.50000499739E+01  0.50000500000E+01  0.51100000000E-03 0. -1.
         11   -1    0    0    0    0 -0.00000000000E+00 -0.00000000000E+00 -0.50000499739E+01  0.50000500000E+01  0.51100000000E-03 0.  1.
         50    1    1    2    0    0 -0.13231890960E-01  0.11922140488E-01  0.13519694072E-01  0.50000500000E+01  0.50000000000E+01 0. -1.
         50    1    1    2    0    0  0.13231890960E-01 -0.11922140488E-01 -0.13519694072E-01  0.50000500000E+01  0.50000000000E+01 0.  1.
</event>
<event>
 4    1  0.4944208E-021  0.5000050E+01  0.7818608E-02  0.2136455E+00
        -11   -1    0    0    0    0  0.00000000000E+00  0.00000000000E+00  0.50000499739E+01  0.50000500000E+01  0.51100000000E-03 0. -1.
         11   -1    0    0    0    0 -0.00000000000E+00 -0.00000000000E+00 -0.50000499739E+01  0.50000500000E+01  0.51100000000E-03 0.  1.
         50    1    1    2    0    0 -0.18198081092E-01 -0.90597038986E-02  0.93141886310E-02  0.50000500000E+01  0.50000000000E+01 0.  0.
         50    1    1    2    0    0  0.18198081092E-01  0.90597038986E-02 -0.93141886310E-02  0.50000500000E+01  0.50000000000E+01 0. -1.
</event>
<event>
 4    1  0.4944208E-021  0.5000050E+01  0.7818608E-02  0.2136455E+00
        -11   -1    0    0    0    0  0.00000000000E+00  0.00000000000E+00  0.50000499739E+01  0.50000500000E+01  0.51100000000E-03 0. -1.
         11   -1    0    0    0    0 -0.00000000000E+00 -0.00000000000E+00 -0.50000499739E+01  0.50000500000E+01  0.51100000000E-03 0.  1.
         50    1    1    2    0    0 -0.10680043802E-01  0.55779246975E-02 -0.18836823524E-01  0.50000500000E+01  0.50000000000E+01 0.  1.
         50    1    1    2    0    0  0.10680043802E-01 -0.55779246975E-02  0.18836823524E-01  0.50000500000E+01  0.50000000000E+01 0. -1.
</event>
<event>
 4    1  0.4944208E-021  0.5000050E+01  0.7818608E-02  0.2136455E+00
        -11   -1    0    0    0    0  0.00000000000E+00  0.00000000000E+00  0.50000499739E+01  0.50000500000E+01  0.51100000000E-03 0. -1.
         11   -1    0    0    0    0 -0.00000000000E+00 -0.00000000000E+00 -0.50000499739E+01  0.50000500000E+01  0.51100000000E-03 0.  1.
         50    1    1    2    0    0  0.21446724065E-01 -0.42785746152E-02  0.46620088086E-02  0.50000500000E+01  0.50000000000E+01 0. -1.
         50    1    1    2    0    0 -0.21446724065E-01  0.42785746152E-02 -0.46620088086E-02  0.50000500000E+01  0.50000000000E+01 0.  1.
</event>
<event>
 4    1  0.4944208E-021  0.5000050E+01  0.7818608E-02  0.2136455E+00
        -11   -1    0    0    0    0  0.00000000000E+00  0.00000000000E+00  0.50000499739E+01  0.50000500000E+01  0.51100000000E-03 0. -1.
         11   -1    0    0    0    0 -0.00000000000E+00 -0.00000000000E+00 -0.50000499739E+01  0.50000500000E+01  0.51100000000E-03 0.  1.
         50    1    1    2    0    0  0.47425086852E-02  0.20304279852E-01  0.80775820070E-02  0.50000500000E+01  0.50000000000E+01 0.  1.
         50    1    1    2    0    0 -0.47425086852E-02 -0.20304279852E-01 -0.80775820070E-02  0.50000500000E+01  0.50000000000E+01 0.  0.
</event>
<event>
 4    1  0.4944208E-021  0.5000050E+01  0.7818608E-02  0.2136455E+00
        -11   -1    0    0    0    0  0.00000000000E+00  0.00000000000E+00  0.50000499739E+01  0.50000500000E+01  0.51100000000E-03 0. -1.
         11   -1    0    0    0    0 -0.00000000000E+00 -0.00000000000E+00 -0.50000499739E+01  0.50000500000E+01  0.51100000000E-03 0.  1.
         50    1    1    2    0    0  0.95364944868E-02 -0.19663687147E-01 -0.47325659710E-02  0.50000500000E+01  0.50000000000E+01 0.  0.
         50    1    1    2    0    0 -0.95364944868E-02  0.19663687147E-01  0.47325659710E-02  0.50000500000E+01  0.50000000000E+01 0.  1.
</event>
<event>
 4    1  0.4944208E-021  0.5000050E+01  0.7818608E-02  0.2136455E+00
        -11   -1    0    0    0    0  0.00000000000E+00  0.00000000000E+00  0.50000499739E+01  0.50000500000E+01  0.51100000000E-03 0.  1.
         11   -1    0    0    0    0 -0.00000000000E+00 -0.00000000000E+00 -0.50000499739E+01  0.50000500000E+01  0.51100000000E-03 0. -1.
         50    1    1    2    0    0  0.16839281716E-01  0.72447470832E-02 -0.12804480895E-01  0.50000500000E+01  0.50000000000E+01 0. -1.
         50    1    1    2    0    0 -0.16839281716E-01 -0.72447470832E-02  0.12804480895E-01  0.50000500000E+01  0.50000000000E+01 0.  1.
</event>
<event>
 4    1  0.4944208E-021  0.5000050E+01  0.7818608E-02  0.2136455E+00
        -11   -1    0    0    0    0  0.00000000000E+00  0.00000000000E+00  0.50000499739E+01  0.50000500000E+01  0.51100000000E-03 0. -1.
         11   -1    0    0    0    0 -0.00000000000E+00 -0.00000000000E+00 -0.50000499739E+01  0.50000500000E+01  0.51100000000E-03 0.  1.
         50    1    1    2    0    0 -0.15452184174E-01  0.14552154114E-01  0.70333004270E-02  0.50000500000E+01  0.50000000000E+01 0.  0.
         50    1    1    2    0    0  0.15452184174E-01 -0.14552154114E-01 -0.70333004270E-02  0.50000500000E+01  0.50000000000E+01 0. -1.
</event>
<event>
 4    1  0.4944208E-021  0.5000050E+01  0.7818608E-02  0.2136455E+00
        -11   -1    0    0    0    0  0.00000000000E+00  0.00000000000E+00  0.50000499739E+01  0.50000500000E+01  0.51100000000E-03 0. -1.
         11   -1    0    0    0    0 -0.00000000000E+00 -0.00000000000E+00 -0.50000499739E+01  0.50000500000E+01  0.51100000000E-03 0.  1.
         50    1    1    2    0    0  0.32216898209E-02  0.64202338659E-02 -0.21175547497E-01  0.50000500000E+01  0.50000000000E+01 0.  0.
         50    1    1    2    0    0 -0.32216898209E-02 -0.64202338659E-02  0.21175547497E-01  0.50000500000E+01  0.50000000000E+01 0. -1.
</event>
<event>
 4    1  0.4944208E-021  0.5000050E+01  0.7818608E-02  0.2136455E+00
        -11   -1    0    0    0    0  0.00000000000E+00  0.00000000000E+00  0.50000499739E+01  0.50000500000E+01  0.51100000000E-03 0. -1.
         11   -1    0    0    0    0 -0.00000000000E+00 -0.00000000000E+00 -0.50000499739E+01  0.50000500000E+01  0.51100000000E-03 0.  1.
         50    1    1    2    0    0 -0.14817367777E-02 -0.16963079377E-01 -0.14493477642E-01  0.50000500000E+01  0.50000000000E+01 0.  0.
         50    1    1    2    0    0  0.14817367777E-02  0.16963079377E-01  0.14493477642E-01  0.50000500000E+01  0.50000000000E+01 0.  0.
</event>
<event>
 4    1  0.4944208E-021  0.5000050E+01  0.7818608E-02  0.2136455E+00
        -11   -1    0    0    0    0  0.00000000000E+00  0.00000000000E+00  0.50000499739E+01  0.50000500000E+01  0.51100000000E-03 0.  1.
         11   -1    0    0    0    0 -0.00000000000E+00 -0.00000000000E+00 -0.50000499739E+01  0.50000500000E+01  0.51100000000E-03 0. -1.
         50    1    1    2    0    0 -0.18593116300E-02  0.62425941671E-02  0.21391013962E-01  0.50000500000E+01  0.50000000000E+01 0.  0.
         50    1    1    2    0    0  0.18593116300E-02 -0.62425941671E-02 -0.21391013962E-01  0.50000500000E+01  0.50000000000E+01 0. -1.
</event>
<event>
 4    1  0.4944208E-021  0.5000050E+01  0.7818608E-02  0.2136455E+00
        -11   -1    0    0    0    0  0.00000000000E+00  0.00000000000E+00  0.50000499739E+01  0.50000500000E+01  0.51100000000E-03 0.  1.
         11   -1    0    0    0    0 -0.00000000000E+00 -0.00000000000E+00 -0.50000499739E+01  0.50000500000E+01  0.51100000000E-03 0. -1.
         50    1    1    2    0    0 -0.85749205901E-02  0.75405008970E-02 -0.19225350012E-01  0.50000500000E+01  0.50000000000E+01 0.  0.
         50    1    1    2    0    0  0.85749205901E-02 -0.75405008970E-02  0.19225350012E-01  0.50000500000E+01  0.50000000000E+01 0.  0.
</event>
<event>
 4    1  0.4944208E-021  0.5000050E+01  0.7818608E-02  0.2136455E+00
        -11   -1    0    0    0    0  0.00000000000E+00  0.00000000000E+00  0.50000499739E+01  0.50000500000E+01  0.51100000000E-03 0.  1.
         11   -1    0    0    0    0 -0.00000000000E+00 -0.00000000000E+00 -0.50000499739E+01  0.50000500000E+01  0.51100000000E-03 0. -1.
         50    1    1    2    0    0  0.19608207255E-01 -0.79891902303E-02 -0.71898225080E-02  0.50000500000E+01  0.50000000000E+01 0.  1.
         50    1    1    2    0    0 -0.19608207255E-01  0.79891902303E-02  0.71898225080E-02  0.50000500000E+01  0.50000000000E+01 0.  1.
</event>
<event>
 4    1  0.4944208E-021  0.5000050E+01  0.7818608E-02  0.2136455E+00
        -11   -1    0    0    0    0  0.00000000000E+00  0.00000000000E+00  0.50000499739E+01  0.50000500000E+01  0.51100000000E-03 0.  1.
         11   -1    0    0    0    0 -0.00000000000E+00 -0.00000000000E+00 -0.50000499739E+01  0.50000500000E+01  0.51100000000E-03 0. -1.
         50    1    1    2    0    0  0.19096645518E-01  0.83037793868E-02 -0.81466482591E-02  0.50000500000E+01  0.50000000000E+01 0. -1.
         50    1    1    2    0    0 -0.19096645518E-01 -0.83037793868E-02  0.81466482591E-02  0.50000500000E+01  0.50000000000E+01 0.  1.
</event>
<event>
 4    1  0.4944208E-021  0.5000050E+01  0.7818608E-02  0.2136455E+00
        -11   -1    0    0    0    0  0.00000000000E+00  0.00000000000E+00  0.50000499739E+01  0.50000500000E+01  0.51100000000E-03 0. -1.
         11   -1    0    0    0    0 -0.00000000000E+00 -0.00000000000E+00 -0.50000499739E+01  0.50000500000E+01  0.51100000000E-03 0.  1.
         50    1    1    2    0    0  0.77253499076E-02 -0.27300998040E-02 -0.20805480621E-01  0.50000500000E+01  0.50000000000E+01 0.  1.
         50    1    1    2    0    0 -0.77253499076E-02  0.27300998040E-02  0.20805480621E-01  0.50000500000E+01  0.50000000000E+01 0.  0.
</event>
<event>
 4    1  0.4944208E-021  0.5000050E+01  0.7818608E-02  0.2136455E+00
        -11   -1    0    0    0    0  0.00000000000E+00  0.00000000000E+00  0.50000499739E+01  0.50000500000E+01  0.51100000000E-03 0.  1.
         11   -1    0    0    0    0 -0.00000000000E+00 -0.00000000000E+00 -0.50000499739E+01  0.50000500000E+01  0.51100000000E-03 0. -1.
         50    1    1    2    0    0  0.59813418619E-04  0.20985065898E-01  0.77217829284E-02  0.50000500000E+01  0.50000000000E+01 0. -1.
         50    1    1    2    0    0 -0.59813418619E-04 -0.20985065898E-01 -0.77217829284E-02  0.50000500000E+01  0.50000000000E+01 0.  0.
</event>
<event>
 4    1  0.4944208E-021  0.5000050E+01  0.7818608E-02  0.2136455E+00
        -11   -1    0    0    0    0  0.00000000000E+00  0.00000000000E+00  0.50000499739E+01  0.50000500000E+01  0.51100000000E-03 0.  1.
         11   -1    0    0    0    0 -0.00000000000E+00 -0.00000000000E+00 -0.50000499739E+01  0.50000500000E+01  0.51100000000E-03 0. -1.
         50    1    1    2    0    0 -0.25670588116E-02  0.21853759808E-01  0.39781768812E-02  0.50000500000E+01  0.50000000000E+01 0.  1.
         50    1    1    2    0    0  0.25670588116E-02 -0.21853759808E-01 -0.39781768812E-02  0.50000500000E+01  0.50000000000E+01 0. -1.
</event>
<event>
 4    1  0.4944208E-021  0.5000050E+01  0.7818608E-02  0.2136455E+00
        -11   -1    0    0    0    0  0.00000000000E+00  0.00000000000E+00  0.50000499739E+01  0.50000500000E+01  0.51100000000E-03 0.  1.
         11   -1    0    0    0    0 -0.00000000000E+00 -0.00000000000E+00 -0.50000499739E+01  0.50000500000E+01  0.51100000000E-03 0. -1.
         50    1    1    2    0    0  0.56618288339E-02 -0.77501257114E-02  0.20196082435E-01  0.50000500000E+01  0.50000000000E+01 0.  1.
         50    1    1    2    0    0 -0.56618288339E-02  0.77501257114E-02 -0.20196082435E-01  0.50000500000E+01  0.50000000000E+01 0.  0.
</event>
<event>
 4    1  0.4944208E-021  0.5000050E+01  0.7818608E-02  0.2136455E+00
        -11   -1    0    0    0    0  0.00000000000E+00  0.00000000000E+00  0.50000499739E+01  0.50000500000E+01  0.51100000000E-03 0. -1.
         11   -1    0    0    0    0 -0.00000000000E+00 -0.00000000000E+00 -0.50000499739E+01  0.50000500000E+01  0.51100000000E-03 0.  1.
         50    1    1    2    0    0 -0.33395976344E-02  0.85955891133E-02  0.20370700416E-01  0.50000500000E+01  0.50000000000E+01 0. -1.
         50    1    1    2    0    0  0.33395976344E-02 -0.85955891133E-02 -0.20370700416E-01  0.50000500000E+01  0.50000000000E+01 0.  0.
</event>
<event>
 4    1  0.4944208E-021  0.5000050E+01  0.7818608E-02  0.2136455E+00
        -11   -1    0    0    0    0  0.00000000000E+00  0.00000000000E+00  0.50000499739E+01  0.50000500000E+01  0.51100000000E-03 0. -1.
         11   -1    0    0    0    0 -0.00000000000E+00 -0.00000000000E+00 -0.50000499739E+01  0.50000500000E+01  0.51100000000E-03 0.  1.
         50    1    1    2    0    0 -0.11186394166E-01  0.15227221299E-01  0.11958211282E-01  0.50000500000E+01  0.50000000000E+01 0.  1.
         50    1    1    2    0    0  0.11186394166E-01 -0.15227221299E-01 -0.11958211282E-01  0.50000500000E+01  0.50000000000E+01 0.  1.
</event>
<event>
 4    1  0.4944208E-021  0.5000050E+01  0.7818608E-02  0.2136455E+00
        -11   -1    0    0    0    0  0.00000000000E+00  0.00000000000E+00  0.50000499739E+01  0.50000500000E+01  0.51100000000E-03 0.  1.
         11   -1    0    0    0    0 -0.00000000000E+00 -0.00000000000E+00 -0.50000499739E+01  0.50000500000E+01  0.51100000000E-03 0. -1.
         50    1    1    2    0    0 -0.65493993196E-02  0.64264476666E-02  0.20391386391E-01  0.50000500000E+01  0.50000000000E+01 0.  1.
         50    1    1    2    0    0  0.65493993196E-02 -0.64264476666E-02 -0.20391386391E-01  0.50000500000E+01  0.50000000000E+01 0.  0.
</event>
<event>
 4    1  0.4944208E-021  0.5000050E+01  0.7818608E-02  0.2136455E+00
        -11   -1    0    0    0    0  0.00000000000E+00  0.00000000000E+00  0.50000499739E+01  0.50000500000E+01  0.51100000000E-03 0.  1.
         11   -1    0    0    0    0 -0.00000000000E+00 -0.00000000000E+00 -0.50000499739E+01  0.50000500000E+01  0.51100000000E-03 0. -1.
         50    1    1    2    0    0  0.90631803460E-02  0.20374951526E-01 -0.16500340391E-02  0.50000500000E+01  0.50000000000E+01 0. -1.
         50    1    1    2    0    0 -0.90631803460E-02 -0.20374951526E-01  0.16500340391E-02  0.50000500000E+01  0.50000000000E+01 0.  1.
</event>
<event>
 4    1  0.4944208E-021  0.5000050E+01  0.7818608E-02  0.2136455E+00
        -11   -1    0    0    0    0  0.00000000000E+00  0.00000000000E+00  0.50000499739E+01  0.50000500000E+01  0.51100000000E-03 0. -1.
         11   -1    0    0    0    0 -0.00000000000E+00 -0.00000000000E+00 -0.50000499739E+01  0.50000500000E+01  0.51100000000E-03 0.  1.
         50    1    1    2    0    0  0.33651301507E-02  0.87699450766E-02 -0.20292029529E-01  0.50000500000E+01  0.50000000000E+01 0.  1.
         50    1    1    2    0    0 -0.33651301507E-02 -0.87699450766E-02  0.20292029529E-01  0.50000500000E+01  0.50000000000E+01 0. -1.
</event>
<event>
 4    1  0.4944208E-021  0.5000050E+01  0.7818608E-02  0.2136455E+00
        -11   -1    0    0    0    0  0.00000000000E+00  0.00000000000E+00  0.50000499739E+01  0.50000500000E+01  0.51100000000E-03 0.  1.
         11   -1    0    0    0    0 -0.00000000000E+00 -0.00000000000E+00 -0.50000499739E+01  0.50000500000E+01  0.51100000000E-03 0. -1.
         50    1    1    2    0    0 -0.18888960042E-02  0.70342310257E-02  0.21141290541E-01  0.50000500000E+01  0.50000000000E+01 0.  1.
         50    1    1    2    0    0  0.18888960042E-02 -0.70342310257E-02 -0.21141290541E-01  0.50000500000E+01  0.50000000000E+01 0.  0.
</event>
<event>
 4    1  0.4944208E-021  0.5000050E+01  0.7818608E-02  0.2136455E+00
        -11   -1    0    0    0    0  0.00000000000E+00  0.00000000000E+00  0.50000499739E+01  0.50000500000E+01  0.51100000000E-03 0.  1.
         11   -1    0    0    0    0 -0.00000000000E+00 -0.00000000000E+00 -0.50000499739E+01  0.50000500000E+01  0.51100000000E-03 0. -1.
         50    1    1    2    0    0  0.16098582150E-01 -0.69970739360E-02 -0.13852043499E-01  0.50000500000E+01  0.50000000000E+01 0. -1.
         50    1    1    2    0    0 -0.16098582150E-01  0.69970739360E-02  0.13852043499E-01  0.50000500000E+01  0.50000000000E+01 0.  0.
</event>
<event>
 4    1  0.4944208E-021  0.5000050E+01  0.7818608E-02  0.2136455E+00
        -11   -1    0    0    0    0  0.00000000000E+00  0.00000000000E+00  0.50000499739E+01  0.50000500000E+01  0.51100000000E-03 0.  1.
         11   -1    0    0    0    0 -0.00000000000E+00 -0.00000000000E+00 -0.50000499739E+01  0.50000500000E+01  0.51100000000E-03 0. -1.
         50    1    1    2    0    0 -0.14098464233E-01  0.16916170798E-01 -0.38831651770E-02  0.50000500000E+01  0.50000000000E+01 0. -1.
         50    1    1    2    0    0  0.14098464233E-01 -0.16916170798E-01  0.38831651770E-02  0.50000500000E+01  0.50000000000E+01 0.  1.
</event>
<event>
 4    1  0.4944208E-021  0.5000050E+01  0.7818608E-02  0.2136455E+00
        -11   -1    0    0    0    0  0.00000000000E+00  0.00000000000E+00  0.50000499739E+01  0.50000500000E+01  0.51100000000E-03 0. -1.
         11   -1    0    0    0    0 -0.00000000000E+00 -0.00000000000E+00 -0.50000499739E+01  0.50000500000E+01  0.51100000000E-03 0.  1.
         50    1    1    2    0    0 -0.42685202530E-02 -0.97050761747E-02 -0.19687400318E-01  0.50000500000E+01  0.50000000000E+01 0.  1.
         50    1    1    2    0    0  0.42685202530E-02  0.97050761747E-02  0.19687400318E-01  0.50000500000E+01  0.50000000000E+01 0.  0.
</event>
<event>
 4    1  0.4944208E-021  0.5000050E+01  0.7818608E-02  0.2136455E+00
        -11   -1    0    0    0    0  0.00000000000E+00  0.00000000000E+00  0.50000499739E+01  0.50000500000E+01  0.51100000000E-03 0.  1.
         11   -1    0    0    0    0 -0.00000000000E+00 -0.00000000000E+00 -0.50000499739E+01  0.50000500000E+01  0.51100000000E-03 0. -1.
         50    1    1    2    0    0 -0.20456682931E-01  0.79449263588E-02  0.42900779263E-02  0.50000500000E+01  0.50000000000E+01 0. -1.
         50    1    1    2    0    0  0.20456682931E-01 -0.79449263588E-02 -0.42900779263E-02  0.50000500000E+01  0.50000000000E+01 0. -1.
</event>
<event>
 4    1  0.4944208E-021  0.5000050E+01  0.7818608E-02  0.2136455E+00
        -11   -1    0    0    0    0  0.00000000000E+00  0.00000000000E+00  0.50000499739E+01  0.50000500000E+01  0.51100000000E-03 0.  1.
         11   -1    0    0    0    0 -0.00000000000E+00 -0.00000000000E+00 -0.50000499739E+01  0.50000500000E+01  0.51100000000E-03 0. -1.
         50    1    1    2    0    0  0.20778790849E-01  0.16377854898E-02 -0.80970370853E-02  0.50000500000E+01  0.50000000000E+01 0.  1.
         50    1    1    2    0    0 -0.20778790849E-01 -0.16377854898E-02  0.80970370853E-02  0.50000500000E+01  0.50000000000E+01 0.  0.
</event>
<event>
 4    1  0.4944208E-021  0.5000050E+01  0.7818608E-02  0.2136455E+00
        -11   -1    0    0    0    0  0.00000000000E+00  0.00000000000E+00  0.50000499739E+01  0.50000500000E+01  0.51100000000E-03 0. -1.
         11   -1    0    0    0    0 -0.00000000000E+00 -0.00000000000E+00 -0.50000499739E+01  0.50000500000E+01  0.51100000000E-03 0.  1.
         50    1    1    2    0    0 -0.21815695039E-01  0.35474604645E-02  0.33902026837E-02  0.50000500000E+01  0.50000000000E+01 0. -1.
         50    1    1    2    0    0  0.21815695039E-01 -0.35474604645E-02 -0.33902026837E-02  0.50000500000E+01  0.50000000000E+01 0.  1.
</event>
<event>
 4    1  0.4944208E-021  0.5000050E+01  0.7818608E-02  0.2136455E+00
        -11   -1    0    0    0    0  0.00000000000E+00  0.00000000000E+00  0.50000499739E+01  0.50000500000E+01  0.51100000000E-03 0.  1.
         11   -1    0    0    0    0 -0.00000000000E+00 -0.00000000000E+00 -0.50000499739E+01  0.50000500000E+01  0.51100000000E-03 0. -1.
         50    1    1    2    0    0 -0.54430584816E-02  0.18897932302E-01 -0.10641605569E-01  0.50000500000E+01  0.50000000000E+01 0. -1.
         50    1    1    2    0    0  0.54430584816E-02 -0.18897932302E-01  0.10641605569E-01  0.50000500000E+01  0.50000000000E+01 0.  1.
</event>
<event>
 4    1  0.4944208E-021  0.5000050E+01  0.7818608E-02  0.2136455E+00
        -11   -1    0    0    0    0  0.00000000000E+00  0.00000000000E+00  0.50000499739E+01  0.50000500000E+01  0.51100000000E-03 0.  1.
         11   -1    0    0    0    0 -0.00000000000E+00 -0.00000000000E+00 -0.50000499739E+01  0.50000500000E+01  0.51100000000E-03 0. -1.
         50    1    1    2    0    0 -0.16749904827E-01 -0.63282491874E-03 -0.14800091922E-01  0.50000500000E+01  0.50000000000E+01 0.  0.
         50    1    1    2    0    0  0.16749904827E-01  0.63282491874E-03  0.14800091922E-01  0.50000500000E+01  0.50000000000E+01 0.  0.
</event>
<event>
 4    1  0.4944208E-021  0.5000050E+01  0.7818608E-02  0.2136455E+00
        -11   -1    0    0    0    0  0.00000000000E+00  0.00000000000E+00  0.50000499739E+01  0.50000500000E+01  0.51100000000E-03 0. -1.
         11   -1    0    0    0    0 -0.00000000000E+00 -0.00000000000E+00 -0.50000499739E+01  0.50000500000E+01  0.51100000000E-03 0.  1.
         50    1    1    2    0    0 -0.20659156193E-01  0.73256668783E-02  0.44199966267E-02  0.50000500000E+01  0.50000000000E+01 0.  0.
         50    1    1    2    0    0  0.20659156193E-01 -0.73256668783E-02 -0.44199966267E-02  0.50000500000E+01  0.50000000000E+01 0. -1.
</event>
<event>
 4    1  0.4944208E-021  0.5000050E+01  0.7818608E-02  0.2136455E+00
        -11   -1    0    0    0    0  0.00000000000E+00  0.00000000000E+00  0.50000499739E+01  0.50000500000E+01  0.51100000000E-03 0. -1.
         11   -1    0    0    0    0 -0.00000000000E+00 -0.00000000000E+00 -0.50000499739E+01  0.50000500000E+01  0.51100000000E-03 0.  1.
         50    1    1    2    0    0  0.13182105926E-01 -0.77631870859E-02  0.16308510343E-01  0.50000500000E+01  0.50000000000E+01 0. -1.
         50    1    1    2    0    0 -0.13182105926E-01  0.77631870859E-02 -0.16308510343E-01  0.50000500000E+01  0.50000000000E+01 0.  1.
</event>
<event>
 4    1  0.4944208E-021  0.5000050E+01  0.7818608E-02  0.2136455E+00
        -11   -1    0    0    0    0  0.00000000000E+00  0.00000000000E+00  0.50000499739E+01  0.50000500000E+01  0.51100000000E-03 0. -1.
         11   -1    0    0    0    0 -0.00000000000E+00 -0.00000000000E+00 -0.50000499739E+01  0.50000500000E+01  0.51100000000E-03 0.  1.
         50    1    1    2    0    0  0.20340215839E-01  0.40652141178E-02  0.83517754888E-02  0.50000500000E+01  0.50000000000E+01 0.  0.
         50    1    1    2    0    0 -0.20340215839E-01 -0.40652141178E-02 -0.83517754888E-02  0.50000500000E+01  0.50000000000E+01 0.  0.
</event>
<event>
 4    1  0.4944208E-021  0.5000050E+01  0.7818608E-02  0.2136455E+00
        -11   -1    0    0    0    0  0.00000000000E+00  0.00000000000E+00  0.50000499739E+01  0.50000500000E+01  0.51100000000E-03 0.  1.
         11   -1    0    0    0    0 -0.00000000000E+00 -0.00000000000E+00 -0.50000499739E+01  0.50000500000E+01  0.51100000000E-03 0. -1.
         50    1    1    2    0    0 -0.93881646803E-03 -0.13416436547E-01 -0.17863940047E-01  0.50000500000E+01  0.50000000000E+01 0.  0.
         50    1    1    2    0    0  0.93881646803E-03  0.13416436547E-01  0.17863940047E-01  0.50000500000E+01  0.50000000000E+01 0.  0.
</event>
<event>
 4    1  0.4944208E-021  0.5000050E+01  0.7818608E-02  0.2136455E+00
        -11   -1    0    0    0    0  0.00000000000E+00  0.00000000000E+00  0.50000499739E+01  0.50000500000E+01  0.51100000000E-03 0.  1.
         11   -1    0    0    0    0 -0.00000000000E+00 -0.00000000000E+00 -0.50000499739E+01  0.50000500000E+01  0.51100000000E-03 0. -1.
         50    1    1    2    0    0  0.11152303371E-01 -0.70796343050E-03  0.19368206352E-01  0.50000500000E+01  0.50000000000E+01 0.  1.
         50    1    1    2    0    0 -0.11152303371E-01  0.70796343050E-03 -0.19368206352E-01  0.50000500000E+01  0.50000000000E+01 0. -1.
</event>
<event>
 4    1  0.4944208E-021  0.5000050E+01  0.7818608E-02  0.2136455E+00
        -11   -1    0    0    0    0  0.00000000000E+00  0.00000000000E+00  0.50000499739E+01  0.50000500000E+01  0.51100000000E-03 0.  1.
         11   -1    0    0    0    0 -0.00000000000E+00 -0.00000000000E+00 -0.50000499739E+01  0.50000500000E+01  0.51100000000E-03 0. -1.
         50    1    1    2    0    0  0.14608174291E-01  0.16791687812E-01  0.21547538914E-02  0.50000500000E+01  0.50000000000E+01 0. -1.
         50    1    1    2    0    0 -0.14608174291E-01 -0.16791687812E-01 -0.21547538914E-02  0.50000500000E+01  0.50000000000E+01 0.  1.
</event>
<event>
 4    1  0.4944208E-021  0.5000050E+01  0.7818608E-02  0.2136455E+00
        -11   -1    0    0    0    0  0.00000000000E+00  0.00000000000E+00  0.50000499739E+01  0.50000500000E+01  0.51100000000E-03 0. -1.
         11   -1    0    0    0    0 -0.00000000000E+00 -0.00000000000E+00 -0.50000499739E+01  0.50000500000E+01  0.51100000000E-03 0.  1.
         50    1    1    2    0    0 -0.88096644026E-02  0.14922429004E-01 -0.14132000062E-01  0.50000500000E+01  0.50000000000E+01 0.  0.
         50    1    1    2    0    0  0.88096644026E-02 -0.14922429004E-01  0.14132000062E-01  0.50000500000E+01  0.50000000000E+01 0.  0.
</event>
<event>
 4    1  0.4944208E-021  0.5000050E+01  0.7818608E-02  0.2136455E+00
        -11   -1    0    0    0    0  0.00000000000E+00  0.00000000000E+00  0.50000499739E+01  0.50000500000E+01  0.51100000000E-03 0.  1.
         11   -1    0    0    0    0 -0.00000000000E+00 -0.00000000000E+00 -0.50000499739E+01  0.50000500000E+01  0.51100000000E-03 0. -1.
         50    1    1    2    0    0 -0.73133842471E-02  0.18290862491E-01  0.10581174802E-01  0.50000500000E+01  0.50000000000E+01 0.  1.
         50    1    1    2    0    0  0.73133842471E-02 -0.18290862491E-01 -0.10581174802E-01  0.50000500000E+01  0.50000000000E+01 0. -1.
</event>
<event>
 4    1  0.4944208E-021  0.5000050E+01  0.7818608E-02  0.2136455E+00
        -11   -1    0    0    0    0  0.00000000000E+00  0.00000000000E+00  0.50000499739E+01  0.50000500000E+01  0.51100000000E-03 0.  1.
         11   -1    0    0    0    0 -0.00000000000E+00 -0.00000000000E+00 -0.50000499739E+01  0.50000500000E+01  0.51100000000E-03 0. -1.
         50    1    1    2    0    0  0.68333691833E-02  0.21258232448E-01 -0.11811514651E-02  0.50000500000E+01  0.50000000000E+01 0.  0.
         50    1    1    2    0    0 -0.68333691833E-02 -0.21258232448E-01  0.11811514651E-02  0.50000500000E+01  0.50000000000E+01 0. -1.
</event>
<event>
 4    1  0.4944208E-021  0.5000050E+01  0.7818608E-02  0.2136455E+00
        -11   -1    0    0    0    0  0.00000000000E+00  0.00000000000E+00  0.50000499739E+01  0.50000500000E+01  0.51100000000E-03 0.  1.
         11   -1    0    0    0    0 -0.00000000000E+00 -0.00000000000E+00 -0.50000499739E+01  0.50000500000E+01  0.51100000000E-03 0. -1.
         50    1    1    2    0    0 -0.23464211137E-02  0.15588116429E-01  0.15858985911E-01  0.50000500000E+01  0.50000000000E+01 0.  1.
         50    1    1    2    0    0  0.23464211137E-02 -0.15588116429E-01 -0.15858985911E-01  0.50000500000E+01  0.50000000000E+01 0.  1.
</event>
<event>
 4    1  0.4944208E-021  0.5000050E+01  0.7818608E-02  0.2136455E+00
        -11   -1    0    0    0    0  0.00000000000E+00  0.00000000000E+00  0.50000499739E+01  0.50000500000E+01  0.51100000000E-03 0. -1.
         11   -1    0    0    0    0 -0.00000000000E+00 -0.00000000000E+00 -0.50000499739E+01  0.50000500000E+01  0.51100000000E-03 0.  1.
         50    1    1    2    0    0  0.18531432297E-01  0.10606409476E-01 -0.66402255266E-02  0.50000500000E+01  0.50000000000E+01 0.  0.
         50    1    1    2    0    0 -0.18531432297E-01 -0.10606409476E-01  0.66402255266E-02  0.50000500000E+01  0.50000000000E+01 0.  0.
</event>
<event>
 4    1  0.4944208E-021  0.5000050E+01  0.7818608E-02  0.2136455E+00
        -11   -1    0    0    0    0  0.00000000000E+00  0.00000000000E+00  0.50000499739E+01  0.50000500000E+01  0.51100000000E-03 0.  1.
         11   -1    0    0    0    0 -0.00000000000E+00 -0.00000000000E+00 -0.50000499739E+01  0.50000500000E+01  0.51100000000E-03 0. -1.
         50    1    1    2    0    0  0.19952703253E-01  0.29192103783E-02 -0.96628331077E-02  0.50000500000E+01  0.50000000000E+01 0.  0.
         50    1    1    2    0    0 -0.19952703253E-01 -0.29192103783E-02  0.96628331077E-02  0.50000500000E+01  0.50000000000E+01 0.  0.
</event>
<event>
 4    1  0.4944208E-021  0.5000050E+01  0.7818608E-02  0.2136455E+00
        -11   -1    0    0    0    0  0.00000000000E+00  0.00000000000E+00  0.50000499739E+01  0.50000500000E+01  0.51100000000E-03 0.  1.
         11   -1    0    0    0    0 -0.00000000000E+00 -0.00000000000E+00 -0.50000499739E+01  0.50000500000E+01  0.51100000000E-03 0. -1.
         50    1    1    2    0    0  0.13845340550E-01 -0.49736877592E-02  0.16839580610E-01  0.50000500000E+01  0.50000000000E+01 0.  1.
         50    1    1    2    0    0 -0.13845340550E-01  0.49736877592E-02 -0.16839580610E-01  0.50000500000E+01  0.50000000000E+01 0. -1.
</event>
<event>
 4    1  0.4944208E-021  0.5000050E+01  0.7818608E-02  0.2136455E+00
        -11   -1    0    0    0    0  0.00000000000E+00  0.00000000000E+00  0.50000499739E+01  0.50000500000E+01  0.51100000000E-03 0.  1.
         11   -1    0    0    0    0 -0.00000000000E+00 -0.00000000000E+00 -0.50000499739E+01  0.50000500000E+01  0.51100000000E-03 0. -1.
         50    1    1    2    0    0  0.11619802606E-01  0.17528291726E-01  0.75987944150E-02  0.50000500000E+01  0.50000000000E+01 0.  0.
         50    1    1    2    0    0 -0.11619802606E-01 -0.17528291726E-01 -0.75987944150E-02  0.50000500000E+01  0.50000000000E+01 0.  0.
</event>
<event>
 4    1  0.4944208E-021  0.5000050E+01  0.7818608E-02  0.2136455E+00
        -11   -1    0    0    0    0  0.00000000000E+00  0.00000000000E+00  0.50000499739E+01  0.50000500000E+01  0.51100000000E-03 0. -1.
         11   -1    0    0    0    0 -0.00000000000E+00 -0.00000000000E+00 -0.50000499739E+01  0.50000500000E+01  0.51100000000E-03 0.  1.
         50    1    1    2    0    0 -0.21072551263E-01  0.58548738624E-02  0.46551622239E-02  0.50000500000E+01  0.50000000000E+01 0. -1.
         50    1    1    2    0    0  0.21072551263E-01 -0.58548738624E-02 -0.46551622239E-02  0.50000500000E+01  0.50000000000E+01 0. -1.
</event>
<event>
 4    1  0.4944208E-021  0.5000050E+01  0.7818608E-02  0.2136455E+00
        -11   -1    0    0    0    0  0.00000000000E+00  0.00000000000E+00  0.50000499739E+01  0.50000500000E+01  0.51100000000E-03 0. -1.
         11   -1    0    0    0    0 -0.00000000000E+00 -0.00000000000E+00 -0.50000499739E+01  0.50000500000E+01  0.51100000000E-03 0.  1.
         50    1    1    2    0    0  0.83334575375E-02  0.18213803555E-01 -0.99404902048E-02  0.50000500000E+01  0.50000000000E+01 0.  0.
         50    1    1    2    0    0 -0.83334575375E-02 -0.18213803555E-01  0.99404902048E-02  0.50000500000E+01  0.50000000000E+01 0.  0.
</event>
<event>
 4    1  0.4944208E-021  0.5000050E+01  0.7818608E-02  0.2136455E+00
        -11   -1    0    0    0    0  0.00000000000E+00  0.00000000000E+00  0.50000499739E+01  0.50000500000E+01  0.51100000000E-03 0. -1.
         11   -1    0    0    0    0 -0.00000000000E+00 -0.00000000000E+00 -0.50000499739E+01  0.50000500000E+01  0.51100000000E-03 0.  1.
         50    1    1    2    0    0  0.12842426169E-01  0.49880209835E-02  0.17612331951E-01  0.50000500000E+01  0.50000000000E+01 0. -1.
         50    1    1    2    0    0 -0.12842426169E-01 -0.49880209835E-02 -0.17612331951E-01  0.50000500000E+01  0.50000000000E+01 0.  1.
</event>
<event>
 4    1  0.4944208E-021  0.5000050E+01  0.7818608E-02  0.2136455E+00
        -11   -1    0    0    0    0  0.00000000000E+00  0.00000000000E+00  0.50000499739E+01  0.50000500000E+01  0.51100000000E-03 0.  1.
         11   -1    0    0    0    0 -0.00000000000E+00 -0.00000000000E+00 -0.50000499739E+01  0.50000500000E+01  0.51100000000E-03 0. -1.
         50    1    1    2    0    0 -0.16575279424E-02  0.96351523827E-02 -0.20110170056E-01  0.50000500000E+01  0.50000000000E+01 0.  0.
         50    1    1    2    0    0  0.16575279424E-02 -0.96351523827E-02  0.20110170056E-01  0.50000500000E+01  0.50000000000E+01 0.  0.
</event>
<event>
 4    1  0.4944208E-021  0.5000050E+01  0.7818608E-02  0.2136455E+00
        -11   -1    0    0    0    0  0.00000000000E+00  0.00000000000E+00  0.50000499739E+01  0.50000500000E+01  0.51100000000E-03 0.  1.
         11   -1    0    0    0    0 -0.00000000000E+00 -0.00000000000E+00 -0.50000499739E+01  0.50000500000E+01  0.51100000000E-03 0. -1.
         50    1    1    2    0    0  0.82566249622E-02  0.18108077914E-01 -0.10194516100E-01  0.50000500000E+01  0.50000000000E+01 0.  0.
         50    1    1    2    0    0 -0.82566249622E-02 -0.18108077914E-01  0.10194516100E-01  0.50000500000E+01  0.50000000000E+01 0.  0.
</event>
<event>
 4    1  0.4944208E-021  0.5000050E+01  0.7818608E-02  0.2136455E+00
        -11   -1    0    0    0    0  0.00000000000E+00  0.00000000000E+00  0.50000499739E+01  0.50000500000E+01  0.51100000000E-03 0. -1.
         11   -1    0    0    0    0 -0.00000000000E+00 -0.00000000000E+00 -0.50000499739E+01  0.50000500000E+01  0.51100000000E-03 0.  1.
         50    1    1    2    0    0 -0.22121573242E-03 -0.17230604327E-01  0.14249906600E-01  0.50000500000E+01  0.50000000000E+01 0.  0.
         50    1    1    2    0    0  0.22121573242E-03  0.17230604327E-01 -0.14249906600E-01  0.50000500000E+01  0.50000000000E+01 0. -1.
</event>
<event>
 4    1  0.4944208E-021  0.5000050E+01  0.7818608E-02  0.2136455E+00
        -11   -1    0    0    0    0  0.00000000000E+00  0.00000000000E+00  0.50000499739E+01  0.50000500000E+01  0.51100000000E-03 0.  1.
         11   -1    0    0    0    0 -0.00000000000E+00 -0.00000000000E+00 -0.50000499739E+01  0.50000500000E+01  0.51100000000E-03 0. -1.
         50    1    1    2    0    0 -0.98523235568E-02 -0.18205087537E-01  0.84562999184E-02  0.50000500000E+01  0.50000000000E+01 0.  0.
         50    1    1    2    0    0  0.98523235568E-02  0.18205087537E-01 -0.84562999184E-02  0.50000500000E+01  0.50000000000E+01 0.  0.
</event>
<event>
 4    1  0.4944208E-021  0.5000050E+01  0.7818608E-02  0.2136455E+00
        -11   -1    0    0    0    0  0.00000000000E+00  0.00000000000E+00  0.50000499739E+01  0.50000500000E+01  0.51100000000E-03 0.  1.
         11   -1    0    0    0    0 -0.00000000000E+00 -0.00000000000E+00 -0.50000499739E+01  0.50000500000E+01  0.51100000000E-03 0. -1.
         50    1    1    2    0    0 -0.16149262120E-02 -0.10007212657E-01  0.19931136650E-01  0.50000500000E+01  0.50000000000E+01 0.  1.
         50    1    1    2    0    0  0.16149262120E-02  0.10007212657E-01 -0.19931136650E-01  0.50000500000E+01  0.50000000000E+01 0. -1.
</event>
<event>
 4    1  0.4944208E-021  0.5000050E+01  0.7818608E-02  0.2136455E+00
        -11   -1    0    0    0    0  0.00000000000E+00  0.00000000000E+00  0.50000499739E+01  0.50000500000E+01  0.51100000000E-03 0.  1.
         11   -1    0    0    0    0 -0.00000000000E+00 -0.00000000000E+00 -0.50000499739E+01  0.50000500000E+01  0.51100000000E-03 0. -1.
         50    1    1    2    0    0  0.14865339332E-01 -0.16855673245E-02  0.16618755951E-01  0.50000500000E+01  0.50000000000E+01 0.  1.
         50    1    1    2    0    0 -0.14865339332E-01  0.16855673245E-02 -0.16618755951E-01  0.50000500000E+01  0.50000000000E+01 0. -1.
</event>
<event>
 4    1  0.4944208E-021  0.5000050E+01  0.7818608E-02  0.2136455E+00
        -11   -1    0    0    0    0  0.00000000000E+00  0.00000000000E+00  0.50000499739E+01  0.50000500000E+01  0.51100000000E-03 0.  1.
         11   -1    0    0    0    0 -0.00000000000E+00 -0.00000000000E+00 -0.50000499739E+01  0.50000500000E+01  0.51100000000E-03 0. -1.
         50    1    1    2    0    0  0.17445687989E-01  0.13376659424E-01  0.40884536495E-02  0.50000500000E+01  0.50000000000E+01 0.  0.
         50    1    1    2    0    0 -0.17445687989E-01 -0.13376659424E-01 -0.40884536495E-02  0.50000500000E+01  0.50000000000E+01 0.  1.
</event>
<event>
 4    1  0.4944208E-021  0.5000050E+01  0.7818608E-02  0.2136455E+00
        -11   -1    0    0    0    0  0.00000000000E+00  0.00000000000E+00  0.50000499739E+01  0.50000500000E+01  0.51100000000E-03 0. -1.
         11   -1    0    0    0    0 -0.00000000000E+00 -0.00000000000E+00 -0.50000499739E+01  0.50000500000E+01  0.51100000000E-03 0.  1.
         50    1    1    2    0    0 -0.43646048706E-03 -0.15709935847E-01 -0.15906285485E-01  0.50000500000E+01  0.50000000000E+01 0.  1.
         50    1    1    2    0    0  0.43646048706E-03  0.15709935847E-01  0.15906285485E-01  0.50000500000E+01  0.50000000000E+01 0. -1.
</event>
<event>
 4    1  0.4944208E-021  0.5000050E+01  0.7818608E-02  0.2136455E+00
        -11   -1    0    0    0    0  0.00000000000E+00  0.00000000000E+00  0.50000499739E+01  0.50000500000E+01  0.51100000000E-03 0.  1.
         11   -1    0    0    0    0 -0.00000000000E+00 -0.00000000000E+00 -0.50000499739E+01  0.50000500000E+01  0.51100000000E-03 0. -1.
         50    1    1    2    0    0 -0.77292409974E-02  0.16808504626E-01  0.12559279670E-01  0.50000500000E+01  0.50000000000E+01 0.  0.
         50    1    1    2    0    0  0.77292409974E-02 -0.16808504626E-01 -0.12559279670E-01  0.50000500000E+01  0.50000000000E+01 0. -1.
</event>
<event>
 4    1  0.4944208E-021  0.5000050E+01  0.7818608E-02  0.2136455E+00
        -11   -1    0    0    0    0  0.00000000000E+00  0.00000000000E+00  0.50000499739E+01  0.50000500000E+01  0.51100000000E-03 0. -1.
         11   -1    0    0    0    0 -0.00000000000E+00 -0.00000000000E+00 -0.50000499739E+01  0.50000500000E+01  0.51100000000E-03 0.  1.
         50    1    1    2    0    0 -0.14778384318E-01  0.15436051676E-01 -0.65825652763E-02  0.50000500000E+01  0.50000000000E+01 0.  0.
         50    1    1    2    0    0  0.14778384318E-01 -0.15436051676E-01  0.65825652763E-02  0.50000500000E+01  0.50000000000E+01 0.  1.
</event>
<event>
 4    1  0.4944208E-021  0.5000050E+01  0.7818608E-02  0.2136455E+00
        -11   -1    0    0    0    0  0.00000000000E+00  0.00000000000E+00  0.50000499739E+01  0.50000500000E+01  0.51100000000E-03 0.  1.
         11   -1    0    0    0    0 -0.00000000000E+00 -0.00000000000E+00 -0.50000499739E+01  0.50000500000E+01  0.51100000000E-03 0. -1.
         50    1    1    2    0    0 -0.51864120685E-02 -0.15165223303E-01 -0.15592293995E-01  0.50000500000E+01  0.50000000000E+01 0.  0.
         50    1    1    2    0    0  0.51864120685E-02  0.15165223303E-01  0.15592293995E-01  0.50000500000E+01  0.50000000000E+01 0.  1.
</event>
<event>
 4    1  0.4944208E-021  0.5000050E+01  0.7818608E-02  0.2136455E+00
        -11   -1    0    0    0    0  0.00000000000E+00  0.00000000000E+00  0.50000499739E+01  0.50000500000E+01  0.51100000000E-03 0.  1.
         11   -1    0    0    0    0 -0.00000000000E+00 -0.00000000000E+00 -0.50000499739E+01  0.50000500000E+01  0.51100000000E-03 0. -1.
         50    1    1    2    0    0  0.31795881761E-02  0.73649302371E-02  0.20872242851E-01  0.50000500000E+01  0.50000000000E+01 0.  1.
         50    1    1    2    0    0 -0.31795881761E-02 -0.73649302371E-02 -0.20872242851E-01  0.50000500000E+01  0.50000000000E+01 0.  1.
</event>
<event>
 4    1  0.4944208E-021  0.5000050E+01  0.7818608E-02  0.2136455E+00
        -11   -1    0    0    0    0  0.00000000000E+00  0.00000000000E+00  0.50000499739E+01  0.50000500000E+01  0.51100000000E-03 0. -1.
         11   -1    0    0    0    0 -0.00000000000E+00 -0.00000000000E+00 -0.50000499739E+01  0.50000500000E+01  0.51100000000E-03 0.  1.
         50    1    1    2    0    0 -0.59769715622E-02  0.28117265039E-02  0.21362876796E-01  0.50000500000E+01  0.50000000000E+01 0.  0.
         50    1    1    2    0    0  0.59769715622E-02 -0.28117265039E-02 -0.21362876796E-01  0.50000500000E+01  0.50000000000E+01 0.  1.
</event>
<event>
 4    1  0.4944208E-021  0.5000050E+01  0.7818608E-02  0.2136455E+00
        -11   -1    0    0    0    0  0.00000000000E+00  0.00000000000E+00  0.50000499739E+01  0.50000500000E+01  0.51100000000E-03 0. -1.
         11   -1    0    0    0    0 -0.00000000000E+00 -0.00000000000E+00 -0.50000499739E+01  0.50000500000E+01  0.51100000000E-03 0.  1.
         50    1    1    2    0    0  0.85187096770E-02  0.12204595947E-01  0.16687777659E-01  0.50000500000E+01  0.50000000000E+01 0. -1.
         50    1    1    2    0    0 -0.85187096770E-02 -0.12204595947E-01 -0.16687777659E-01  0.50000500000E+01  0.50000000000E+01 0.  1.
</event>
<event>
 4    1  0.4944208E-021  0.5000050E+01  0.7818608E-02  0.2136455E+00
        -11   -1    0    0    0    0  0.00000000000E+00  0.00000000000E+00  0.50000499739E+01  0.50000500000E+01  0.51100000000E-03 0. -1.
         11   -1    0    0    0    0 -0.00000000000E+00 -0.00000000000E+00 -0.50000499739E+01  0.50000500000E+01  0.51100000000E-03 0.  1.
         50    1    1    2    0    0  0.11886287953E-02 -0.20445586165E-01 -0.89759494168E-02  0.50000500000E+01  0.50000000000E+01 0.  1.
         50    1    1    2    0    0 -0.11886287953E-02  0.20445586165E-01  0.89759494168E-02  0.50000500000E+01  0.50000000000E+01 0.  0.
</event>
<event>
 4    1  0.4944208E-021  0.5000050E+01  0.7818608E-02  0.2136455E+00
        -11   -1    0    0    0    0  0.00000000000E+00  0.00000000000E+00  0.50000499739E+01  0.50000500000E+01  0.51100000000E-03 0.  1.
         11   -1    0    0    0    0 -0.00000000000E+00 -0.00000000000E+00 -0.50000499739E+01  0.50000500000E+01  0.51100000000E-03 0. -1.
         50    1    1    2    0    0  0.16803439399E-01  0.47689238098E-03  0.14745151678E-01  0.50000500000E+01  0.50000000000E+01 0.  0.
         50    1    1    2    0    0 -0.16803439399E-01 -0.47689238098E-03 -0.14745151678E-01  0.50000500000E+01  0.50000000000E+01 0.  1.
</event>
<event>
 4    1  0.4944208E-021  0.5000050E+01  0.7818608E-02  0.2136455E+00
        -11   -1    0    0    0    0  0.00000000000E+00  0.00000000000E+00  0.50000499739E+01  0.50000500000E+01  0.51100000000E-03 0. -1.
         11   -1    0    0    0    0 -0.00000000000E+00 -0.00000000000E+00 -0.50000499739E+01  0.50000500000E+01  0.51100000000E-03 0.  1.
         50    1    1    2    0    0  0.12970438456E-02 -0.22229773499E-01  0.20389574365E-02  0.50000500000E+01  0.50000000000E+01 0.  0.
         50    1    1    2    0    0 -0.12970438456E-02  0.22229773499E-01 -0.20389574365E-02  0.50000500000E+01  0.50000000000E+01 0. -1.
</event>
<event>
 4    1  0.4944208E-021  0.5000050E+01  0.7818608E-02  0.2136455E+00
        -11   -1    0    0    0    0  0.00000000000E+00  0.00000000000E+00  0.50000499739E+01  0.50000500000E+01  0.51100000000E-03 0.  1.
         11   -1    0    0    0    0 -0.00000000000E+00 -0.00000000000E+00 -0.50000499739E+01  0.50000500000E+01  0.51100000000E-03 0. -1.
         50    1    1    2    0    0 -0.11652134314E-01  0.71288888324E-02  0.17703367192E-01  0.50000500000E+01  0.50000000000E+01 0. -1.
         50    1    1    2    0    0  0.11652134314E-01 -0.71288888324E-02 -0.17703367192E-01  0.50000500000E+01  0.50000000000E+01 0. -1.
</event>
<event>
 4    1  0.4944208E-021  0.5000050E+01  0.7818608E-02  0.2136455E+00
        -11   -1    0    0    0    0  0.00000000000E+00  0.00000000000E+00  0.50000499739E+01  0.50000500000E+01  0.51100000000E-03 0.  1.
         11   -1    0    0    0    0 -0.00000000000E+00 -0.00000000000E+00 -0.50000499739E+01  0.50000500000E+01  0.51100000000E-03 0. -1.
         50    1    1    2    0    0  0.22019697964E-02 -0.16967590469E-01  0.14396343379E-01  0.50000500000E+01  0.50000000000E+01 0.  0.
         50    1    1    2    0    0 -0.22019697964E-02  0.16967590469E-01 -0.14396343379E-01  0.50000500000E+01  0.50000000000E+01 0. -1.
</event>
<event>
 4    1  0.4944208E-021  0.5000050E+01  0.7818608E-02  0.2136455E+00
        -11   -1    0    0    0    0  0.00000000000E+00  0.00000000000E+00  0.50000499739E+01  0.50000500000E+01  0.51100000000E-03 0. -1.
         11   -1    0    0    0    0 -0.00000000000E+00 -0.00000000000E+00 -0.50000499739E+01  0.50000500000E+01  0.51100000000E-03 0.  1.
         50    1    1    2    0    0 -0.23502337051E-02 -0.42650524302E-03  0.22232790981E-01  0.50000500000E+01  0.50000000000E+01 0.  0.
         50    1    1    2    0    0  0.23502337051E-02  0.42650524302E-03 -0.22232790981E-01  0.50000500000E+01  0.50000000000E+01 0.  1.
</event>
<event>
 4    1  0.4944208E-021  0.5000050E+01  0.7818608E-02  0.2136455E+00
        -11   -1    0    0    0    0  0.00000000000E+00  0.00000000000E+00  0.50000499739E+01  0.50000500000E+01  0.51100000000E-03 0.  1.
         11   -1    0    0    0    0 -0.00000000000E+00 -0.00000000000E+00 -0.50000499739E+01  0.50000500000E+01  0.51100000000E-03 0. -1.
         50    1    1    2    0    0  0.17538534747E-01 -0.24603461453E-02  0.13650970507E-01  0.50000500000E+01  0.50000000000E+01 0.  1.
         50    1    1    2    0    0 -0.17538534747E-01  0.24603461453E-02 -0.13650970507E-01  0.50000500000E+01  0.50000000000E+01 0. -1.
</event>
<event>
 4    1  0.4944208E-021  0.5000050E+01  0.7818608E-02  0.2136455E+00
        -11   -1    0    0    0    0  0.00000000000E+00  0.00000000000E+00  0.50000499739E+01  0.50000500000E+01  0.51100000000E-03 0. -1.
         11   -1    0    0    0    0 -0.00000000000E+00 -0.00000000000E+00 -0.50000499739E+01  0.50000500000E+01  0.51100000000E-03 0.  1.
         50    1    1    2    0    0  0.11812620348E-01 -0.19846042822E-02  0.18881892023E-01  0.50000500000E+01  0.50000000000E+01 0. -1.
         50    1    1    2    0    0 -0.11812620348E-01  0.19846042822E-02 -0.18881892023E-01  0.50000500000E+01  0.50000000000E+01 0.  0.
</event>
<event>
 4    1  0.4944208E-021  0.5000050E+01  0.7818608E-02  0.2136455E+00
        -11   -1    0    0    0    0  0.00000000000E+00  0.00000000000E+00  0.50000499739E+01  0.50000500000E+01  0.51100000000E-03 0. -1.
         11   -1    0    0    0    0 -0.00000000000E+00 -0.00000000000E+00 -0.50000499739E+01  0.50000500000E+01  0.51100000000E-03 0.  1.
         50    1    1    2    0    0 -0.19379923562E-01  0.57799082395E-02 -0.95401112916E-02  0.50000500000E+01  0.50000000000E+01 0. -1.
         50    1    1    2    0    0  0.19379923562E-01 -0.57799082395E-02  0.95401112916E-02  0.50000500000E+01  0.50000000000E+01 0.  0.
</event>
<event>
 4    1  0.4944208E-021  0.5000050E+01  0.7818608E-02  0.2136455E+00
        -11   -1    0    0    0    0  0.00000000000E+00  0.00000000000E+00  0.50000499739E+01  0.50000500000E+01  0.51100000000E-03 0.  1.
         11   -1    0    0    0    0 -0.00000000000E+00 -0.00000000000E+00 -0.50000499739E+01  0.50000500000E+01  0.51100000000E-03 0. -1.
         50    1    1    2    0    0 -0.17630063349E-01  0.99340245293E-02  0.95130711633E-02  0.50000500000E+01  0.50000000000E+01 0. -1.
         50    1    1    2    0    0  0.17630063349E-01 -0.99340245293E-02 -0.95130711633E-02  0.50000500000E+01  0.50000000000E+01 0.  1.
</event>
<event>
 4    1  0.4944208E-021  0.5000050E+01  0.7818608E-02  0.2136455E+00
        -11   -1    0    0    0    0  0.00000000000E+00  0.00000000000E+00  0.50000499739E+01  0.50000500000E+01  0.51100000000E-03 0.  1.
         11   -1    0    0    0    0 -0.00000000000E+00 -0.00000000000E+00 -0.50000499739E+01  0.50000500000E+01  0.51100000000E-03 0. -1.
         50    1    1    2    0    0 -0.31591966739E-02  0.69894403995E-02  0.21004040070E-01  0.50000500000E+01  0.50000000000E+01 0.  1.
         50    1    1    2    0    0  0.31591966739E-02 -0.69894403995E-02 -0.21004040070E-01  0.50000500000E+01  0.50000000000E+01 0.  0.
</event>
<event>
 4    1  0.4944208E-021  0.5000050E+01  0.7818608E-02  0.2136455E+00
        -11   -1    0    0    0    0  0.00000000000E+00  0.00000000000E+00  0.50000499739E+01  0.50000500000E+01  0.51100000000E-03 0. -1.
         11   -1    0    0    0    0 -0.00000000000E+00 -0.00000000000E+00 -0.50000499739E+01  0.50000500000E+01  0.51100000000E-03 0.  1.
         50    1    1    2    0    0  0.73421467203E-02 -0.19840649164E-01 -0.72418245150E-02  0.50000500000E+01  0.50000000000E+01 0.  0.
         50    1    1    2    0    0 -0.73421467203E-02  0.19840649164E-01  0.72418245150E-02  0.50000500000E+01  0.50000000000E+01 0.  1.
</event>
<event>
 4    1  0.4944208E-021  0.5000050E+01  0.7818608E-02  0.2136455E+00
        -11   -1    0    0    0    0  0.00000000000E+00  0.00000000000E+00  0.50000499739E+01  0.50000500000E+01  0.51100000000E-03 0.  1.
         11   -1    0    0    0    0 -0.00000000000E+00 -0.00000000000E+00 -0.50000499739E+01  0.50000500000E+01  0.51100000000E-03 0. -1.
         50    1    1    2    0    0 -0.12299735170E-01  0.11675380791E-01 -0.14574103681E-01  0.50000500000E+01  0.50000000000E+01 0.  1.
         50    1    1    2    0    0  0.12299735170E-01 -0.11675380791E-01  0.14574103681E-01  0.50000500000E+01  0.50000000000E+01 0.  1.
</event>
<event>
 4    1  0.4944208E-021  0.5000050E+01  0.7818608E-02  0.2136455E+00
        -11   -1    0    0    0    0  0.00000000000E+00  0.00000000000E+00  0.50000499739E+01  0.50000500000E+01  0.51100000000E-03 0.  1.
         11   -1    0    0    0    0 -0.00000000000E+00 -0.00000000000E+00 -0.50000499739E+01  0.50000500000E+01  0.51100000000E-03 0. -1.
         50    1    1    2    0    0 -0.10171870571E-01 -0.11782377361E-01  0.16053383843E-01  0.50000500000E+01  0.50000000000E+01 0.  1.
         50    1    1    2    0    0  0.10171870571E-01  0.11782377361E-01 -0.16053383843E-01  0.50000500000E+01  0.50000000000E+01 0.  0.
</event>
<event>
 4    1  0.4944208E-021  0.5000050E+01  0.7818608E-02  0.2136455E+00
        -11   -1    0    0    0    0  0.00000000000E+00  0.00000000000E+00  0.50000499739E+01  0.50000500000E+01  0.51100000000E-03 0. -1.
         11   -1    0    0    0    0 -0.00000000000E+00 -0.00000000000E+00 -0.50000499739E+01  0.50000500000E+01  0.51100000000E-03 0.  1.
         50    1    1    2    0    0 -0.38075466914E-02  0.20067065169E-01 -0.91004386544E-02  0.50000500000E+01  0.50000000000E+01 0.  1.
         50    1    1    2    0    0  0.38075466914E-02 -0.20067065169E-01  0.91004386544E-02  0.50000500000E+01  0.50000000000E+01 0. -1.
</event>
<event>
 4    1  0.4944208E-021  0.5000050E+01  0.7818608E-02  0.2136455E+00
        -11   -1    0    0    0    0  0.00000000000E+00  0.00000000000E+00  0.50000499739E+01  0.50000500000E+01  0.51100000000E-03 0. -1.
         11   -1    0    0    0    0 -0.00000000000E+00 -0.00000000000E+00 -0.50000499739E+01  0.50000500000E+01  0.51100000000E-03 0.  1.
         50    1    1    2    0    0 -0.11888119197E-01  0.54664731910E-02 -0.18132644396E-01  0.50000500000E+01  0.50000000000E+01 0.  1.
         50    1    1    2    0    0  0.11888119197E-01 -0.54664731910E-02  0.18132644396E-01  0.50000500000E+01  0.50000000000E+01 0. -1.
</event>
<event>
 4    1  0.4944208E-021  0.5000050E+01  0.7818608E-02  0.2136455E+00
        -11   -1    0    0    0    0  0.00000000000E+00  0.00000000000E+00  0.50000499739E+01  0.50000500000E+01  0.51100000000E-03 0.  1.
         11   -1    0    0    0    0 -0.00000000000E+00 -0.00000000000E+00 -0.50000499739E+01  0.50000500000E+01  0.51100000000E-03 0. -1.
         50    1    1    2    0    0 -0.92870527458E-02 -0.17883216334E-01  0.96924571109E-02  0.50000500000E+01  0.50000000000E+01 0.  0.
         50    1    1    2    0    0  0.92870527458E-02  0.17883216334E-01 -0.96924571109E-02  0.50000500000E+01  0.50000000000E+01 0.  1.
</event>
<event>
 4    1  0.4944208E-021  0.5000050E+01  0.7818608E-02  0.2136455E+00
        -11   -1    0    0    0    0  0.00000000000E+00  0.00000000000E+00  0.50000499739E+01  0.50000500000E+01  0.51100000000E-03 0. -1.
         11   -1    0    0    0    0 -0.00000000000E+00 -0.00000000000E+00 -0.50000499739E+01  0.50000500000E+01  0.51100000000E-03 0.  1.
         50    1    1    2    0    0  0.16951729781E-01 -0.89842374953E-02 -0.11485853649E-01  0.50000500000E+01  0.50000000000E+01 0. -1.
         50    1    1    2    0    0 -0.16951729781E-01  0.89842374953E-02  0.11485853649E-01  0.50000500000E+01  0.50000000000E+01 0.  0.
</event>
<event>
 4    1  0.4944208E-021  0.5000050E+01  0.7818608E-02  0.2136455E+00
        -11   -1    0    0    0    0  0.00000000000E+00  0.00000000000E+00  0.50000499739E+01  0.50000500000E+01  0.51100000000E-03 0.  1.
         11   -1    0    0    0    0 -0.00000000000E+00 -0.00000000000E+00 -0.50000499739E+01  0.50000500000E+01  0.51100000000E-03 0. -1.
         50    1    1    2    0    0 -0.12593702303E-01 -0.18351897628E-01  0.21468618389E-02  0.50000500000E+01  0.50000000000E+01 0. -1.
         50    1    1    2    0    0  0.12593702303E-01  0.18351897628E-01 -0.21468618389E-02  0.50000500000E+01  0.50000000000E+01 0.  1.
</event>
<event>
 4    1  0.4944208E-021  0.5000050E+01  0.7818608E-02  0.2136455E+00
        -11   -1    0    0    0    0  0.00000000000E+00  0.00000000000E+00  0.50000499739E+01  0.50000500000E+01  0.51100000000E-03 0. -1.
         11   -1    0    0    0    0 -0.00000000000E+00 -0.00000000000E+00 -0.50000499739E+01  0.50000500000E+01  0.51100000000E-03 0.  1.
         50    1    1    2    0    0 -0.10758165715E-01  0.14045194021E-01 -0.13674680814E-01  0.50000500000E+01  0.50000000000E+01 0.  1.
         50    1    1    2    0    0  0.10758165715E-01 -0.14045194021E-01  0.13674680814E-01  0.50000500000E+01  0.50000000000E+01 0. -1.
</event>
<event>
 4    1  0.4944208E-021  0.5000050E+01  0.7818608E-02  0.2136455E+00
        -11   -1    0    0    0    0  0.00000000000E+00  0.00000000000E+00  0.50000499739E+01  0.50000500000E+01  0.51100000000E-03 0. -1.
         11   -1    0    0    0    0 -0.00000000000E+00 -0.00000000000E+00 -0.50000499739E+01  0.50000500000E+01  0.51100000000E-03 0.  1.
         50    1    1    2    0    0 -0.11217565289E-01  0.15593970363E-01  0.11445384105E-01  0.50000500000E+01  0.50000000000E+01 0.  0.
         50    1    1    2    0    0  0.11217565289E-01 -0.15593970363E-01 -0.11445384105E-01  0.50000500000E+01  0.50000000000E+01 0.  0.
</event>
<event>
 4    1  0.4944208E-021  0.5000050E+01  0.7818608E-02  0.2136455E+00
        -11   -1    0    0    0    0  0.00000000000E+00  0.00000000000E+00  0.50000499739E+01  0.50000500000E+01  0.51100000000E-03 0. -1.
         11   -1    0    0    0    0 -0.00000000000E+00 -0.00000000000E+00 -0.50000499739E+01  0.50000500000E+01  0.51100000000E-03 0.  1.
         50    1    1    2    0    0 -0.80267719899E-02 -0.52864552788E-02  0.20189770232E-01  0.50000500000E+01  0.50000000000E+01 0. -1.
         50    1    1    2    0    0  0.80267719899E-02  0.52864552788E-02 -0.20189770232E-01  0.50000500000E+01  0.50000000000E+01 0.  0.
</event>
<event>
 4    1  0.4944208E-021  0.5000050E+01  0.7818608E-02  0.2136455E+00
        -11   -1    0    0    0    0  0.00000000000E+00  0.00000000000E+00  0.50000499739E+01  0.50000500000E+01  0.51100000000E-03 0.  1.
         11   -1    0    0    0    0 -0.00000000000E+00 -0.00000000000E+00 -0.50000499739E+01  0.50000500000E+01  0.51100000000E-03 0. -1.
         50    1    1    2    0    0  0.13845237196E-01  0.16293216429E-01  0.65454568511E-02  0.50000500000E+01  0.50000000000E+01 0. -1.
         50    1    1    2    0    0 -0.13845237196E-01 -0.16293216429E-01 -0.65454568511E-02  0.50000500000E+01  0.50000000000E+01 0.  0.
</event>
<event>
 4    1  0.4944208E-021  0.5000050E+01  0.7818608E-02  0.2136455E+00
        -11   -1    0    0    0    0  0.00000000000E+00  0.00000000000E+00  0.50000499739E+01  0.50000500000E+01  0.51100000000E-03 0.  1.
         11   -1    0    0    0    0 -0.00000000000E+00 -0.00000000000E+00 -0.50000499739E+01  0.50000500000E+01  0.51100000000E-03 0. -1.
         50    1    1    2    0    0  0.18063821119E-01 -0.11990328332E-01 -0.54710961472E-02  0.50000500000E+01  0.50000000000E+01 0.  0.
         50    1    1    2    0    0 -0.18063821119E-01  0.11990328332E-01  0.54710961472E-02  0.50000500000E+01  0.50000000000E+01 0. -1.
</event>
<event>
 4    1  0.4944208E-021  0.5000050E+01  0.7818608E-02  0.2136455E+00
        -11   -1    0    0    0    0  0.00000000000E+00  0.00000000000E+00  0.50000499739E+01  0.50000500000E+01  0.51100000000E-03 0.  1.
         11   -1    0    0    0    0 -0.00000000000E+00 -0.00000000000E+00 -0.50000499739E+01  0.50000500000E+01  0.51100000000E-03 0. -1.
         50    1    1    2    0    0 -0.12796548101E-01 -0.14831930075E-01 -0.10782611323E-01  0.50000500000E+01  0.50000000000E+01 0. -1.
         50    1    1    2    0    0  0.12796548101E-01  0.14831930075E-01  0.10782611323E-01  0.50000500000E+01  0.50000000000E+01 0.  1.
</event>
<event>
 4    1  0.4944208E-021  0.5000050E+01  0.7818608E-02  0.2136455E+00
        -11   -1    0    0    0    0  0.00000000000E+00  0.00000000000E+00  0.50000499739E+01  0.50000500000E+01  0.51100000000E-03 0. -1.
         11   -1    0    0    0    0 -0.00000000000E+00 -0.00000000000E+00 -0.50000499739E+01  0.50000500000E+01  0.51100000000E-03 0.  1.
         50    1    1    2    0    0  0.16030676311E-02  0.72675794971E-02  0.21085894869E-01  0.50000500000E+01  0.50000000000E+01 0. -1.
         50    1    1    2    0    0 -0.16030676311E-02 -0.72675794971E-02 -0.21085894869E-01  0.50000500000E+01  0.50000000000E+01 0.  1.
</event>
<event>
 4    1  0.4944208E-021  0.5000050E+01  0.7818608E-02  0.2136455E+00
        -11   -1    0    0    0    0  0.00000000000E+00  0.00000000000E+00  0.50000499739E+01  0.50000500000E+01  0.51100000000E-03 0.  1.
         11   -1    0    0    0    0 -0.00000000000E+00 -0.00000000000E+00 -0.50000499739E+01  0.50000500000E+01  0.51100000000E-03 0. -1.
         50    1    1    2    0    0  0.13347833427E-01  0.37532513610E-02 -0.17542831785E-01  0.50000500000E+01  0.50000000000E+01 0. -1.
         50    1    1    2    0    0 -0.13347833427E-01 -0.37532513610E-02  0.17542831785E-01  0.50000500000E+01  0.50000000000E+01 0.  0.
</event>
<event>
 4    1  0.4944208E-021  0.5000050E+01  0.7818608E-02  0.2136455E+00
        -11   -1    0    0    0    0  0.00000000000E+00  0.00000000000E+00  0.50000499739E+01  0.50000500000E+01  0.51100000000E-03 0.  1.
         11   -1    0    0    0    0 -0.00000000000E+00 -0.00000000000E+00 -0.50000499739E+01  0.50000500000E+01  0.51100000000E-03 0. -1.
         50    1    1    2    0    0 -0.21880824993E-01 -0.99628170463E-03  0.44988243346E-02  0.50000500000E+01  0.50000000000E+01 0. -1.
         50    1    1    2    0    0  0.21880824993E-01  0.99628170463E-03 -0.44988243346E-02  0.50000500000E+01  0.50000000000E+01 0.  0.
</event>
<event>
 4    1  0.4944208E-021  0.5000050E+01  0.7818608E-02  0.2136455E+00
        -11   -1    0    0    0    0  0.00000000000E+00  0.00000000000E+00  0.50000499739E+01  0.50000500000E+01  0.51100000000E-03 0. -1.
         11   -1    0    0    0    0 -0.00000000000E+00 -0.00000000000E+00 -0.50000499739E+01  0.50000500000E+01  0.51100000000E-03 0.  1.
         50    1    1    2    0    0 -0.61467797504E-02 -0.21498909838E-01 -0.12835285675E-03  0.50000500000E+01  0.50000000000E+01 0.  0.
         50    1    1    2    0    0  0.61467797504E-02  0.21498909838E-01  0.12835285675E-03  0.50000500000E+01  0.50000000000E+01 0.  1.
</event>
<event>
 4    1  0.4944208E-021  0.5000050E+01  0.7818608E-02  0.2136455E+00
        -11   -1    0    0    0    0  0.00000000000E+00  0.00000000000E+00  0.50000499739E+01  0.50000500000E+01  0.51100000000E-03 0.  1.
         11   -1    0    0    0    0 -0.00000000000E+00 -0.00000000000E+00 -0.50000499739E+01  0.50000500000E+01  0.51100000000E-03 0. -1.
         50    1    1    2    0    0 -0.12145671831E-02  0.12288769691E-01  0.18641713066E-01  0.50000500000E+01  0.50000000000E+01 0.  1.
         50    1    1    2    0    0  0.12145671831E-02 -0.12288769691E-01 -0.18641713066E-01  0.50000500000E+01  0.50000000000E+01 0.  1.
</event>
<event>
 4    1  0.4944208E-021  0.5000050E+01  0.7818608E-02  0.2136455E+00
        -11   -1    0    0    0    0  0.00000000000E+00  0.00000000000E+00  0.50000499739E+01  0.50000500000E+01  0.51100000000E-03 0. -1.
         11   -1    0    0    0    0 -0.00000000000E+00 -0.00000000000E+00 -0.50000499739E+01  0.50000500000E+01  0.51100000000E-03 0.  1.
         50    1    1    2    0    0  0.12879247599E-01  0.13253705135E-01  0.12588358966E-01  0.50000500000E+01  0.50000000000E+01 0. -1.
         50    1    1    2    0    0 -0.12879247599E-01 -0.13253705135E-01 -0.12588358966E-01  0.50000500000E+01  0.50000000000E+01 0.  1.
</event>
<event>
 4    1  0.4944208E-021  0.5000050E+01  0.7818608E-02  0.2136455E+00
        -11   -1    0    0    0    0  0.00000000000E+00  0.00000000000E+00  0.50000499739E+01  0.50000500000E+01  0.51100000000E-03 0. -1.
         11   -1    0    0    0    0 -0.00000000000E+00 -0.00000000000E+00 -0.50000499739E+01  0.50000500000E+01  0.51100000000E-03 0.  1.
         50    1    1    2    0    0 -0.17893343760E-01 -0.10741336106E-01  0.80283527412E-02  0.50000500000E+01  0.50000000000E+01 0.  0.
         50    1    1    2    0    0  0.17893343760E-01  0.10741336106E-01 -0.80283527412E-02  0.50000500000E+01  0.50000000000E+01 0.  0.
</event>
<event>
 4    1  0.4944208E-021  0.5000050E+01  0.7818608E-02  0.2136455E+00
        -11   -1    0    0    0    0  0.00000000000E+00  0.00000000000E+00  0.50000499739E+01  0.50000500000E+01  0.51100000000E-03 0. -1.
         11   -1    0    0    0    0 -0.00000000000E+00 -0.00000000000E+00 -0.50000499739E+01  0.50000500000E+01  0.51100000000E-03 0.  1.
         50    1    1    2    0    0  0.19681714255E-01  0.10516578068E-01 -0.14262572366E-02  0.50000500000E+01  0.50000000000E+01 0.  1.
         50    1    1    2    0    0 -0.19681714255E-01 -0.10516578068E-01  0.14262572366E-02  0.50000500000E+01  0.50000000000E+01 0. -1.
</event>
<event>
 4    1  0.4944208E-021  0.5000050E+01  0.7818608E-02  0.2136455E+00
        -11   -1    0    0    0    0  0.00000000000E+00  0.00000000000E+00  0.50000499739E+01  0.50000500000E+01  0.51100000000E-03 0. -1.
         11   -1    0    0    0    0 -0.00000000000E+00 -0.00000000000E+00 -0.50000499739E+01  0.50000500000E+01  0.51100000000E-03 0.  1.
         50    1    1    2    0    0 -0.15186686769E-01  0.12640400707E-01 -0.10468396006E-01  0.50000500000E+01  0.50000000000E+01 0.  1.
         50    1    1    2    0    0  0.15186686769E-01 -0.12640400707E-01  0.10468396006E-01  0.50000500000E+01  0.50000000000E+01 0. -1.
</event>
<event>
 4    1  0.4944208E-021  0.5000050E+01  0.7818608E-02  0.2136455E+00
        -11   -1    0    0    0    0  0.00000000000E+00  0.00000000000E+00  0.50000499739E+01  0.50000500000E+01  0.51100000000E-03 0.  1.
         11   -1    0    0    0    0 -0.00000000000E+00 -0.00000000000E+00 -0.50000499739E+01  0.50000500000E+01  0.51100000000E-03 0. -1.
         50    1    1    2    0    0  0.10761311242E-01 -0.50536131622E-04 -0.19600870553E-01  0.50000500000E+01  0.50000000000E+01 0.  1.
         50    1    1    2    0    0 -0.10761311242E-01  0.50536131622E-04  0.19600870553E-01  0.50000500000E+01  0.50000000000E+01 0.  0.
</event>
<event>
 4    1  0.4944208E-021  0.5000050E+01  0.7818608E-02  0.2136455E+00
        -11   -1    0    0    0    0  0.00000000000E+00  0.00000000000E+00  0.50000499739E+01  0.50000500000E+01  0.51100000000E-03 0.  1.
         11   -1    0    0    0    0 -0.00000000000E+00 -0.00000000000E+00 -0.50000499739E+01  0.50000500000E+01  0.51100000000E-03 0. -1.
         50    1    1    2    0    0  0.17135575194E-01  0.13523349580E-01  0.48470175267E-02  0.50000500000E+01  0.50000000000E+01 0. -1.
         50    1    1    2    0    0 -0.17135575194E-01 -0.13523349580E-01 -0.48470175267E-02  0.50000500000E+01  0.50000000000E+01 0.  1.
</event>
<event>
 4    1  0.4944208E-021  0.5000050E+01  0.7818608E-02  0.2136455E+00
        -11   -1    0    0    0    0  0.00000000000E+00  0.00000000000E+00  0.50000499739E+01  0.50000500000E+01  0.51100000000E-03 0.  1.
         11   -1    0    0    0    0 -0.00000000000E+00 -0.00000000000E+00 -0.50000499739E+01  0.50000500000E+01  0.51100000000E-03 0. -1.
         50    1    1    2    0    0  0.18606659562E-01 -0.11570736451E-01  0.44623735763E-02  0.50000500000E+01  0.50000000000E+01 0. -1.
         50    1    1    2    0    0 -0.18606659562E-01  0.11570736451E-01 -0.44623735763E-02  0.50000500000E+01  0.50000000000E+01 0.  1.
</event>
<event>
 4    1  0.4944208E-021  0.5000050E+01  0.7818608E-02  0.2136455E+00
        -11   -1    0    0    0    0  0.00000000000E+00  0.00000000000E+00  0.50000499739E+01  0.50000500000E+01  0.51100000000E-03 0. -1.
         11   -1    0    0    0    0 -0.00000000000E+00 -0.00000000000E+00 -0.50000499739E+01  0.50000500000E+01  0.51100000000E-03 0.  1.
         50    1    1    2    0    0 -0.12029677174E-01  0.73940224344E-02  0.17338333234E-01  0.50000500000E+01  0.50000000000E+01 0. -1.
         50    1    1    2    0    0  0.12029677174E-01 -0.73940224344E-02 -0.17338333234E-01  0.50000500000E+01  0.50000000000E+01 0.  1.
</event>
<event>
 4    1  0.4944208E-021  0.5000050E+01  0.7818608E-02  0.2136455E+00
        -11   -1    0    0    0    0  0.00000000000E+00  0.00000000000E+00  0.50000499739E+01  0.50000500000E+01  0.51100000000E-03 0. -1.
         11   -1    0    0    0    0 -0.00000000000E+00 -0.00000000000E+00 -0.50000499739E+01  0.50000500000E+01  0.51100000000E-03 0.  1.
         50    1    1    2    0    0  0.15191480589E-01 -0.14739716308E-01 -0.72084797749E-02  0.50000500000E+01  0.50000000000E+01 0.  1.
         50    1    1    2    0    0 -0.15191480589E-01  0.14739716308E-01  0.72084797749E-02  0.50000500000E+01  0.50000000000E+01 0.  0.
</event>
<event>
 4    1  0.4944208E-021  0.5000050E+01  0.7818608E-02  0.2136455E+00
        -11   -1    0    0    0    0  0.00000000000E+00  0.00000000000E+00  0.50000499739E+01  0.50000500000E+01  0.51100000000E-03 0.  1.
         11   -1    0    0    0    0 -0.00000000000E+00 -0.00000000000E+00 -0.50000499739E+01  0.50000500000E+01  0.51100000000E-03 0. -1.
         50    1    1    2    0    0 -0.13839340541E-01  0.81554923363E-02 -0.15555163070E-01  0.50000500000E+01  0.50000000000E+01 0.  0.
         50    1    1    2    0    0  0.13839340541E-01 -0.81554923363E-02  0.15555163070E-01  0.50000500000E+01  0.50000000000E+01 0.  0.
</event>
<event>
 4    1  0.4944208E-021  0.5000050E+01  0.7818608E-02  0.2136455E+00
        -11   -1    0    0    0    0  0.00000000000E+00  0.00000000000E+00  0.50000499739E+01  0.50000500000E+01  0.51100000000E-03 0.  1.
         11   -1    0    0    0    0 -0.00000000000E+00 -0.00000000000E+00 -0.50000499739E+01  0.50000500000E+01  0.51100000000E-03 0. -1.
         50    1    1    2    0    0 -0.20111488884E-01 -0.83954429579E-02  0.50047030282E-02  0.50000500000E+01  0.50000000000E+01 0.  1.
         50    1    1    2    0    0  0.20111488884E-01  0.83954429579E-02 -0.50047030282E-02  0.50000500000E+01  0.50000000000E+01 0. -1.
</event>
<event>
 4    1  0.4944208E-021  0.5000050E+01  0.7818608E-02  0.2136455E+00
        -11   -1    0    0    0    0  0.00000000000E+00  0.00000000000E+00  0.50000499739E+01  0.50000500000E+01  0.51100000000E-03 0. -1.
         11   -1    0    0    0    0 -0.00000000000E+00 -0.00000000000E+00 -0.50000499739E+01  0.50000500000E+01  0.51100000000E-03 0.  1.
         50    1    1    2    0    0 -0.20021799770E-01  0.93892425791E-02  0.33124247567E-02  0.50000500000E+01  0.50000000000E+01 0.  1.
         50    1    1    2    0    0  0.20021799770E-01 -0.93892425791E-02 -0.33124247567E-02  0.50000500000E+01  0.50000000000E+01 0. -1.
</event>
<event>
 4    1  0.4944208E-021  0.5000050E+01  0.7818608E-02  0.2136455E+00
        -11   -1    0    0    0    0  0.00000000000E+00  0.00000000000E+00  0.50000499739E+01  0.50000500000E+01  0.51100000000E-03 0.  1.
         11   -1    0    0    0    0 -0.00000000000E+00 -0.00000000000E+00 -0.50000499739E+01  0.50000500000E+01  0.51100000000E-03 0. -1.
         50    1    1    2    0    0 -0.13190720228E-01 -0.43698250776E-02 -0.17518904893E-01  0.50000500000E+01  0.50000000000E+01 0.  0.
         50    1    1    2    0    0  0.13190720228E-01  0.43698250776E-02  0.17518904893E-01  0.50000500000E+01  0.50000000000E+01 0.  0.
</event>
<event>
 4    1  0.4944208E-021  0.5000050E+01  0.7818608E-02  0.2136455E+00
        -11   -1    0    0    0    0  0.00000000000E+00  0.00000000000E+00  0.50000499739E+01  0.50000500000E+01  0.51100000000E-03 0.  1.
         11   -1    0    0    0    0 -0.00000000000E+00 -0.00000000000E+00 -0.50000499739E+01  0.50000500000E+01  0.51100000000E-03 0. -1.
         50    1    1    2    0    0  0.98851342051E-02 -0.91316412123E-02 -0.17857764432E-01  0.50000500000E+01  0.50000000000E+01 0.  0.
         50    1    1    2    0    0 -0.98851342051E-02  0.91316412123E-02  0.17857764432E-01  0.50000500000E+01  0.50000000000E+01 0.  0.
</event>
<event>
 4    1  0.4944208E-021  0.5000050E+01  0.7818608E-02  0.2136455E+00
        -11   -1    0    0    0    0  0.00000000000E+00  0.00000000000E+00  0.50000499739E+01  0.50000500000E+01  0.51100000000E-03 0. -1.
         11   -1    0    0    0    0 -0.00000000000E+00 -0.00000000000E+00 -0.50000499739E+01  0.50000500000E+01  0.51100000000E-03 0.  1.
         50    1    1    2    0    0  0.21706010452E-01  0.56157908836E-03  0.53419321576E-02  0.50000500000E+01  0.50000000000E+01 0. -1.
         50    1    1    2    0    0 -0.21706010452E-01 -0.56157908836E-03 -0.53419321576E-02  0.50000500000E+01  0.50000000000E+01 0.  1.
</event>
<event>
 4    1  0.4944208E-021  0.5000050E+01  0.7818608E-02  0.2136455E+00
        -11   -1    0    0    0    0  0.00000000000E+00  0.00000000000E+00  0.50000499739E+01  0.50000500000E+01  0.51100000000E-03 0.  1.
         11   -1    0    0    0    0 -0.00000000000E+00 -0.00000000000E+00 -0.50000499739E+01  0.50000500000E+01  0.51100000000E-03 0. -1.
         50    1    1    2    0    0 -0.21412359321E-02 -0.70305499410E-02 -0.21118451084E-01  0.50000500000E+01  0.50000000000E+01 0. -1.
         50    1    1    2    0    0  0.21412359321E-02  0.70305499410E-02  0.21118451084E-01  0.50000500000E+01  0.50000000000E+01 0.  0.
</event>
<event>
 4    1  0.4944208E-021  0.5000050E+01  0.7818608E-02  0.2136455E+00
        -11   -1    0    0    0    0  0.00000000000E+00  0.00000000000E+00  0.50000499739E+01  0.50000500000E+01  0.51100000000E-03 0. -1.
         11   -1    0    0    0    0 -0.00000000000E+00 -0.00000000000E+00 -0.50000499739E+01  0.50000500000E+01  0.51100000000E-03 0.  1.
         50    1    1    2    0    0  0.16065268559E-01  0.11014816119E-01  0.10981050587E-01  0.50000500000E+01  0.50000000000E+01 0. -1.
         50    1    1    2    0    0 -0.16065268559E-01 -0.11014816119E-01 -0.10981050587E-01  0.50000500000E+01  0.50000000000E+01 0.  1.
</event>
<event>
 4    1  0.4944208E-021  0.5000050E+01  0.7818608E-02  0.2136455E+00
        -11   -1    0    0    0    0  0.00000000000E+00  0.00000000000E+00  0.50000499739E+01  0.50000500000E+01  0.51100000000E-03 0. -1.
         11   -1    0    0    0    0 -0.00000000000E+00 -0.00000000000E+00 -0.50000499739E+01  0.50000500000E+01  0.51100000000E-03 0.  1.
         50    1    1    2    0    0 -0.67385161848E-02  0.10305673908E-01  0.18665154297E-01  0.50000500000E+01  0.50000000000E+01 0. -1.
         50    1    1    2    0    0  0.67385161848E-02 -0.10305673908E-01 -0.18665154297E-01  0.50000500000E+01  0.50000000000E+01 0. -1.
</event>
<event>
 4    1  0.4944208E-021  0.5000050E+01  0.7818608E-02  0.2136455E+00
        -11   -1    0    0    0    0  0.00000000000E+00  0.00000000000E+00  0.50000499739E+01  0.50000500000E+01  0.51100000000E-03 0. -1.
         11   -1    0    0    0    0 -0.00000000000E+00 -0.00000000000E+00 -0.50000499739E+01  0.50000500000E+01  0.51100000000E-03 0.  1.
         50    1    1    2    0    0 -0.21585228754E-01  0.58126745817E-02 -0.54149224500E-03  0.50000500000E+01  0.50000000000E+01 0. -1.
         50    1    1    2    0    0  0.21585228754E-01 -0.58126745817E-02  0.54149224500E-03  0.50000500000E+01  0.50000000000E+01 0.  1.
</event>
<event>
 4    1  0.4944208E-021  0.5000050E+01  0.7818608E-02  0.2136455E+00
        -11   -1    0    0    0    0  0.00000000000E+00  0.00000000000E+00  0.50000499739E+01  0.50000500000E+01  0.51100000000E-03 0.  1.
         11   -1    0    0    0    0 -0.00000000000E+00 -0.00000000000E+00 -0.50000499739E+01  0.50000500000E+01  0.51100000000E-03 0. -1.
         50    1    1    2    0    0  0.88197751300E-02  0.11740942135E-02 -0.20514277210E-01  0.50000500000E+01  0.50000000000E+01 0.  0.
         50    1    1    2    0    0 -0.88197751300E-02 -0.11740942135E-02  0.20514277210E-01  0.50000500000E+01  0.50000000000E+01 0.  1.
</event>
<event>
 4    1  0.4944208E-021  0.5000050E+01  0.7818608E-02  0.2136455E+00
        -11   -1    0    0    0    0  0.00000000000E+00  0.00000000000E+00  0.50000499739E+01  0.50000500000E+01  0.51100000000E-03 0.  1.
         11   -1    0    0    0    0 -0.00000000000E+00 -0.00000000000E+00 -0.50000499739E+01  0.50000500000E+01  0.51100000000E-03 0. -1.
         50    1    1    2    0    0  0.12796045088E-01 -0.13221994849E-01 -0.12706005758E-01  0.50000500000E+01  0.50000000000E+01 0.  1.
         50    1    1    2    0    0 -0.12796045088E-01  0.13221994849E-01  0.12706005758E-01  0.50000500000E+01  0.50000000000E+01 0.  0.
</event>
<event>
 4    1  0.4944208E-021  0.5000050E+01  0.7818608E-02  0.2136455E+00
        -11   -1    0    0    0    0  0.00000000000E+00  0.00000000000E+00  0.50000499739E+01  0.50000500000E+01  0.51100000000E-03 0.  1.
         11   -1    0    0    0    0 -0.00000000000E+00 -0.00000000000E+00 -0.50000499739E+01  0.50000500000E+01  0.51100000000E-03 0. -1.
         50    1    1    2    0    0 -0.20208314035E-01 -0.83718940319E-02 -0.46408979945E-02  0.50000500000E+01  0.50000000000E+01 0. -1.
         50    1    1    2    0    0  0.20208314035E-01  0.83718940319E-02  0.46408979945E-02  0.50000500000E+01  0.50000000000E+01 0.  1.
</event>
<event>
 4    1  0.4944208E-021  0.5000050E+01  0.7818608E-02  0.2136455E+00
        -11   -1    0    0    0    0  0.00000000000E+00  0.00000000000E+00  0.50000499739E+01  0.50000500000E+01  0.51100000000E-03 0.  1.
         11   -1    0    0    0    0 -0.00000000000E+00 -0.00000000000E+00 -0.50000499739E+01  0.50000500000E+01  0.51100000000E-03 0. -1.
         50    1    1    2    0    0  0.13338795323E-01 -0.40333373063E-02  0.17487459206E-01  0.50000500000E+01  0.50000000000E+01 0. -1.
         50    1    1    2    0    0 -0.13338795323E-01  0.40333373063E-02 -0.17487459206E-01  0.50000500000E+01  0.50000000000E+01 0.  0.
</event>
<event>
 4    1  0.4944208E-021  0.5000050E+01  0.7818608E-02  0.2136455E+00
        -11   -1    0    0    0    0  0.00000000000E+00  0.00000000000E+00  0.50000499739E+01  0.50000500000E+01  0.51100000000E-03 0.  1.
         11   -1    0    0    0    0 -0.00000000000E+00 -0.00000000000E+00 -0.50000499739E+01  0.50000500000E+01  0.51100000000E-03 0. -1.
         50    1    1    2    0    0 -0.56698254776E-02  0.81951078791E-02 -0.20017387090E-01  0.50000500000E+01  0.50000000000E+01 0.  0.
         50    1    1    2    0    0  0.56698254776E-02 -0.81951078791E-02  0.20017387090E-01  0.50000500000E+01  0.50000000000E+01 0.  0.
</event>
<event>
 4    1  0.4944208E-021  0.5000050E+01  0.7818608E-02  0.2136455E+00
        -11   -1    0    0    0    0  0.00000000000E+00  0.00000000000E+00  0.50000499739E+01  0.50000500000E+01  0.51100000000E-03 0.  1.
         11   -1    0    0    0    0 -0.00000000000E+00 -0.00000000000E+00 -0.50000499739E+01  0.50000500000E+01  0.51100000000E-03 0. -1.
         50    1    1    2    0    0  0.10854825429E-01 -0.13183454392E-01  0.14435089026E-01  0.50000500000E+01  0.50000000000E+01 0.  0.
         50    1    1    2    0    0 -0.10854825429E-01  0.13183454392E-01 -0.14435089026E-01  0.50000500000E+01  0.50000000000E+01 0.  0.
</event>
<event>
 4    1  0.4944208E-021  0.5000050E+01  0.7818608E-02  0.2136455E+00
        -11   -1    0    0    0    0  0.00000000000E+00  0.00000000000E+00  0.50000499739E+01  0.50000500000E+01  0.51100000000E-03 0.  1.
         11   -1    0    0    0    0 -0.00000000000E+00 -0.00000000000E+00 -0.50000499739E+01  0.50000500000E+01  0.51100000000E-03 0. -1.
         50    1    1    2    0    0 -0.33865021622E-02  0.53678086716E-02 -0.21441099159E-01  0.50000500000E+01  0.50000000000E+01 0.  0.
         50    1    1    2    0    0  0.33865021622E-02 -0.53678086716E-02  0.21441099159E-01  0.50000500000E+01  0.50000000000E+01 0.  0.
</event>
<event>
 4    1  0.4944208E-021  0.5000050E+01  0.7818608E-02  0.2136455E+00
        -11   -1    0    0    0    0  0.00000000000E+00  0.00000000000E+00  0.50000499739E+01  0.50000500000E+01  0.51100000000E-03 0. -1.
         11   -1    0    0    0    0 -0.00000000000E+00 -0.00000000000E+00 -0.50000499739E+01  0.50000500000E+01  0.51100000000E-03 0.  1.
         50    1    1    2    0    0  0.54678222902E-02  0.10101079350E-01  0.19185244731E-01  0.50000500000E+01  0.50000000000E+01 0.  0.
         50    1    1    2    0    0 -0.54678222902E-02 -0.10101079350E-01 -0.19185244731E-01  0.50000500000E+01  0.50000000000E+01 0.  0.
</event>
<event>
 4    1  0.4944208E-021  0.5000050E+01  0.7818608E-02  0.2136455E+00
        -11   -1    0    0    0    0  0.00000000000E+00  0.00000000000E+00  0.50000499739E+01  0.50000500000E+01  0.51100000000E-03 0.  1.
         11   -1    0    0    0    0 -0.00000000000E+00 -0.00000000000E+00 -0.50000499739E+01  0.50000500000E+01  0.51100000000E-03 0. -1.
         50    1    1    2    0    0  0.18750273954E-01  0.86814770728E-02  0.85476126771E-02  0.50000500000E+01  0.50000000000E+01 0.  1.
         50    1    1    2    0    0 -0.18750273954E-01 -0.86814770728E-02 -0.85476126771E-02  0.50000500000E+01  0.50000000000E+01 0. -1.
</event>
<event>
 4    1  0.4944208E-021  0.5000050E+01  0.7818608E-02  0.2136455E+00
        -11   -1    0    0    0    0  0.00000000000E+00  0.00000000000E+00  0.50000499739E+01  0.50000500000E+01  0.51100000000E-03 0. -1.
         11   -1    0    0    0    0 -0.00000000000E+00 -0.00000000000E+00 -0.50000499739E+01  0.50000500000E+01  0.51100000000E-03 0.  1.
         50    1    1    2    0    0 -0.98388909063E-02 -0.12800910993E-01 -0.15470468755E-01  0.50000500000E+01  0.50000000000E+01 0. -1.
         50    1    1    2    0    0  0.98388909063E-02  0.12800910993E-01  0.15470468755E-01  0.50000500000E+01  0.50000000000E+01 0.  0.
</event>
<event>
 4    1  0.4944208E-021  0.5000050E+01  0.7818608E-02  0.2136455E+00
        -11   -1    0    0    0    0  0.00000000000E+00  0.00000000000E+00  0.50000499739E+01  0.50000500000E+01  0.51100000000E-03 0.  1.
         11   -1    0    0    0    0 -0.00000000000E+00 -0.00000000000E+00 -0.50000499739E+01  0.50000500000E+01  0.51100000000E-03 0. -1.
         50    1    1    2    0    0 -0.45189853805E-02 -0.19657835422E-01 -0.96514650515E-02  0.50000500000E+01  0.50000000000E+01 0.  1.
         50    1    1    2    0    0  0.45189853805E-02  0.19657835422E-01  0.96514650515E-02  0.50000500000E+01  0.50000000000E+01 0. -1.
</event>
<event>
 4    1  0.4944208E-021  0.5000050E+01  0.7818608E-02  0.2136455E+00
        -11   -1    0    0    0    0  0.00000000000E+00  0.00000000000E+00  0.50000499739E+01  0.50000500000E+01  0.51100000000E-03 0. -1.
         11   -1    0    0    0    0 -0.00000000000E+00 -0.00000000000E+00 -0.50000499739E+01  0.50000500000E+01  0.51100000000E-03 0.  1.
         50    1    1    2    0    0 -0.31688013391E-02 -0.19426686381E-01 -0.10609667965E-01  0.50000500000E+01  0.50000000000E+01 0.  0.
         50    1    1    2    0    0  0.31688013391E-02  0.19426686381E-01  0.10609667965E-01  0.50000500000E+01  0.50000000000E+01 0.  0.
</event>
<event>
 4    1  0.4944208E-021  0.5000050E+01  0.7818608E-02  0.2136455E+00
        -11   -1    0    0    0    0  0.00000000000E+00  0.00000000000E+00  0.50000499739E+01  0.50000500000E+01  0.51100000000E-03 0.  1.
         11   -1    0    0    0    0 -0.00000000000E+00 -0.00000000000E+00 -0.50000499739E+01  0.50000500000E+01  0.51100000000E-03 0. -1.
         50    1    1    2    0    0 -0.86071227045E-03  0.21006786712E-01 -0.76142357743E-02  0.50000500000E+01  0.50000000000E+01 0.  0.
         50    1    1    2    0    0  0.86071227045E-03 -0.21006786712E-01  0.76142357743E-02  0.50000500000E+01  0.50000000000E+01 0. -1.
</event>
<event>
 4    1  0.4944208E-021  0.5000050E+01  0.7818608E-02  0.2136455E+00
        -11   -1    0    0    0    0  0.00000000000E+00  0.00000000000E+00  0.50000499739E+01  0.50000500000E+01  0.51100000000E-03 0.  1.
         11   -1    0    0    0    0 -0.00000000000E+00 -0.00000000000E+00 -0.50000499739E+01  0.50000500000E+01  0.51100000000E-03 0. -1.
         50    1    1    2    0    0 -0.17014705655E-01 -0.14093114339E-01 -0.34476687346E-02  0.50000500000E+01  0.50000000000E+01 0. -1.
         50    1    1    2    0    0  0.17014705655E-01  0.14093114339E-01  0.34476687346E-02  0.50000500000E+01  0.50000000000E+01 0.  1.
</event>
<event>
 4    1  0.4944208E-021  0.5000050E+01  0.7818608E-02  0.2136455E+00
        -11   -1    0    0    0    0  0.00000000000E+00  0.00000000000E+00  0.50000499739E+01  0.50000500000E+01  0.51100000000E-03 0.  1.
         11   -1    0    0    0    0 -0.00000000000E+00 -0.00000000000E+00 -0.50000499739E+01  0.50000500000E+01  0.51100000000E-03 0. -1.
         50    1    1    2    0    0 -0.15929414052E-01 -0.94934219061E-02  0.12495247436E-01  0.50000500000E+01  0.50000000000E+01 0.  0.
         50    1    1    2    0    0  0.15929414052E-01  0.94934219061E-02 -0.12495247436E-01  0.50000500000E+01  0.50000000000E+01 0.  1.
</event>
<event>
 4    1  0.4944208E-021  0.5000050E+01  0.7818608E-02  0.2136455E+00
        -11   -1    0    0    0    0  0.00000000000E+00  0.00000000000E+00  0.50000499739E+01  0.50000500000E+01  0.51100000000E-03 0. -1.
         11   -1    0    0    0    0 -0.00000000000E+00 -0.00000000000E+00 -0.50000499739E+01  0.50000500000E+01  0.51100000000E-03 0.  1.
         50    1    1    2    0    0 -0.52220428387E-02 -0.15979071845E-01 -0.14744559389E-01  0.50000500000E+01  0.50000000000E+01 0.  1.
         50    1    1    2    0    0  0.52220428387E-02  0.15979071845E-01  0.14744559389E-01  0.50000500000E+01  0.50000000000E+01 0. -1.
</event>
<event>
 4    1  0.4944208E-021  0.5000050E+01  0.7818608E-02  0.2136455E+00
        -11   -1    0    0    0    0  0.00000000000E+00  0.00000000000E+00  0.50000499739E+01  0.50000500000E+01  0.51100000000E-03 0.  1.
         11   -1    0    0    0    0 -0.00000000000E+00 -0.00000000000E+00 -0.50000499739E+01  0.50000500000E+01  0.51100000000E-03 0. -1.
         50    1    1    2    0    0  0.14481885326E-01  0.14643736712E-01 -0.87085287217E-02  0.50000500000E+01  0.50000000000E+01 0.  0.
         50    1    1    2    0    0 -0.14481885326E-01 -0.14643736712E-01  0.87085287217E-02  0.50000500000E+01  0.50000000000E+01 0.  0.
</event>
<event>
 4    1  0.4944208E-021  0.5000050E+01  0.7818608E-02  0.2136455E+00
        -11   -1    0    0    0    0  0.00000000000E+00  0.00000000000E+00  0.50000499739E+01  0.50000500000E+01  0.51100000000E-03 0. -1.
         11   -1    0    0    0    0 -0.00000000000E+00 -0.00000000000E+00 -0.50000499739E+01  0.50000500000E+01  0.51100000000E-03 0.  1.
         50    1    1    2    0    0 -0.65988860340E-02  0.21039661798E-01  0.37134666439E-02  0.50000500000E+01  0.50000000000E+01 0. -1.
         50    1    1    2    0    0  0.65988860340E-02 -0.21039661798E-01 -0.37134666439E-02  0.50000500000E+01  0.50000000000E+01 0.  1.
</event>
<event>
 4    1  0.4944208E-021  0.5000050E+01  0.7818608E-02  0.2136455E+00
        -11   -1    0    0    0    0  0.00000000000E+00  0.00000000000E+00  0.50000499739E+01  0.50000500000E+01  0.51100000000E-03 0. -1.
         11   -1    0    0    0    0 -0.00000000000E+00 -0.00000000000E+00 -0.50000499739E+01  0.50000500000E+01  0.51100000000E-03 0.  1.
         50    1    1    2    0    0 -0.96659312769E-02  0.63087706203E-02 -0.19151284182E-01  0.50000500000E+01  0.50000000000E+01 0.  1.
         50    1    1    2    0    0  0.96659312769E-02 -0.63087706203E-02  0.19151284182E-01  0.50000500000E+01  0.50000000000E+01 0. -1.
</event>
<event>
 4    1  0.4944208E-021  0.5000050E+01  0.7818608E-02  0.2136455E+00
        -11   -1    0    0    0    0  0.00000000000E+00  0.00000000000E+00  0.50000499739E+01  0.50000500000E+01  0.51100000000E-03 0.  1.
         11   -1    0    0    0    0 -0.00000000000E+00 -0.00000000000E+00 -0.50000499739E+01  0.50000500000E+01  0.51100000000E-03 0. -1.
         50    1    1    2    0    0  0.15279188230E-01 -0.51997384574E-02 -0.15476163187E-01  0.50000500000E+01  0.50000000000E+01 0.  0.
         50    1    1    2    0    0 -0.15279188230E-01  0.51997384574E-02  0.15476163187E-01  0.50000500000E+01  0.50000000000E+01 0.  0.
</event>
<event>
 4    1  0.4944208E-021  0.5000050E+01  0.7818608E-02  0.2136455E+00
        -11   -1    0    0    0    0  0.00000000000E+00  0.00000000000E+00  0.50000499739E+01  0.50000500000E+01  0.51100000000E-03 0. -1.
         11   -1    0    0    0    0 -0.00000000000E+00 -0.00000000000E+00 -0.50000499739E+01  0.50000500000E+01  0.51100000000E-03 0.  1.
         50    1    1    2    0    0  0.46840662743E-02 -0.17699547809E-01 -0.12836979025E-01  0.50000500000E+01  0.50000000000E+01 0. -1.
         50    1    1    2    0    0 -0.46840662743E-02  0.17699547809E-01  0.12836979025E-01  0.50000500000E+01  0.50000000000E+01 0. -1.
</event>
<event>
 4    1  0.4944208E-021  0.5000050E+01  0.7818608E-02  0.2136455E+00
        -11   -1    0    0    0    0  0.00000000000E+00  0.00000000000E+00  0.50000499739E+01  0.50000500000E+01  0.51100000000E-03 0.  1.
         11   -1    0    0    0    0 -0.00000000000E+00 -0.00000000000E+00 -0.50000499739E+01  0.50000500000E+01  0.51100000000E-03 0. -1.
         50    1    1    2    0    0  0.17676694495E-01  0.10965522244E-01  0.82033099193E-02  0.50000500000E+01  0.50000000000E+01 0.  1.
         50    1    1    2    0    0 -0.17676694495E-01 -0.10965522244E-01 -0.82033099193E-02  0.50000500000E+01  0.50000000000E+01 0.  1.
</event>
<event>
 4    1  0.4944208E-021  0.5000050E+01  0.7818608E-02  0.2136455E+00
        -11   -1    0    0    0    0  0.00000000000E+00  0.00000000000E+00  0.50000499739E+01  0.50000500000E+01  0.51100000000E-03 0.  1.
         11   -1    0    0    0    0 -0.00000000000E+00 -0.00000000000E+00 -0.50000499739E+01  0.50000500000E+01  0.51100000000E-03 0. -1.
         50    1    1    2    0    0  0.17111700657E-01  0.76171315693E-02 -0.12213578807E-01  0.50000500000E+01  0.50000000000E+01 0.  0.
         50    1    1    2    0    0 -0.17111700657E-01 -0.76171315693E-02  0.12213578807E-01  0.50000500000E+01  0.50000000000E+01 0.  0.
</event>
<event>
 4    1  0.4944208E-021  0.5000050E+01  0.7818608E-02  0.2136455E+00
        -11   -1    0    0    0    0  0.00000000000E+00  0.00000000000E+00  0.50000499739E+01  0.50000500000E+01  0.51100000000E-03 0. -1.
         11   -1    0    0    0    0 -0.00000000000E+00 -0.00000000000E+00 -0.50000499739E+01  0.50000500000E+01  0.51100000000E-03 0.  1.
         50    1    1    2    0    0  0.61604183869E-02 -0.17451174233E-01  0.12550229607E-01  0.50000500000E+01  0.50000000000E+01 0. -1.
         50    1    1    2    0    0 -0.61604183869E-02  0.17451174233E-01 -0.12550229607E-01  0.50000500000E+01  0.50000000000E+01 0.  1.
</event>
<event>
 4    1  0.4944208E-021  0.5000050E+01  0.7818608E-02  0.2136455E+00
        -11   -1    0    0    0    0  0.00000000000E+00  0.00000000000E+00  0.50000499739E+01  0.50000500000E+01  0.51100000000E-03 0. -1.
         11   -1    0    0    0    0 -0.00000000000E+00 -0.00000000000E+00 -0.50000499739E+01  0.50000500000E+01  0.51100000000E-03 0.  1.
         50    1    1    2    0    0 -0.91557220204E-02  0.18436988174E-01  0.87322804212E-02  0.50000500000E+01  0.50000000000E+01 0.  1.
         50    1    1    2    0    0  0.91557220204E-02 -0.18436988174E-01 -0.87322804212E-02  0.50000500000E+01  0.50000000000E+01 0. -1.
</event>
<event>
 4    1  0.4944208E-021  0.5000050E+01  0.7818608E-02  0.2136455E+00
        -11   -1    0    0    0    0  0.00000000000E+00  0.00000000000E+00  0.50000499739E+01  0.50000500000E+01  0.51100000000E-03 0.  1.
         11   -1    0    0    0    0 -0.00000000000E+00 -0.00000000000E+00 -0.50000499739E+01  0.50000500000E+01  0.51100000000E-03 0. -1.
         50    1    1    2    0    0  0.12728306623E-02  0.16879625601E-01 -0.14610292319E-01  0.50000500000E+01  0.50000000000E+01 0. -1.
         50    1    1    2    0    0 -0.12728306623E-02 -0.16879625601E-01  0.14610292319E-01  0.50000500000E+01  0.50000000000E+01 0.  1.
</event>
<event>
 4    1  0.4944208E-021  0.5000050E+01  0.7818608E-02  0.2136455E+00
        -11   -1    0    0    0    0  0.00000000000E+00  0.00000000000E+00  0.50000499739E+01  0.50000500000E+01  0.51100000000E-03 0. -1.
         11   -1    0    0    0    0 -0.00000000000E+00 -0.00000000000E+00 -0.50000499739E+01  0.50000500000E+01  0.51100000000E-03 0.  1.
         50    1    1    2    0    0 -0.17652854533E-01 -0.11281522024E-01 -0.78170638767E-02  0.50000500000E+01  0.50000000000E+01 0. -1.
         50    1    1    2    0    0  0.17652854533E-01  0.11281522024E-01  0.78170638767E-02  0.50000500000E+01  0.50000000000E+01 0.  1.
</event>
<event>
 4    1  0.4944208E-021  0.5000050E+01  0.7818608E-02  0.2136455E+00
        -11   -1    0    0    0    0  0.00000000000E+00  0.00000000000E+00  0.50000499739E+01  0.50000500000E+01  0.51100000000E-03 0.  1.
         11   -1    0    0    0    0 -0.00000000000E+00 -0.00000000000E+00 -0.50000499739E+01  0.50000500000E+01  0.51100000000E-03 0. -1.
         50    1    1    2    0    0  0.22321966597E-01  0.78824655463E-03 -0.10540278031E-02  0.50000500000E+01  0.50000000000E+01 0.  0.
         50    1    1    2    0    0 -0.22321966597E-01 -0.78824655463E-03  0.10540278031E-02  0.50000500000E+01  0.50000000000E+01 0. -1.
</event>
<event>
 4    1  0.4944208E-021  0.5000050E+01  0.7818608E-02  0.2136455E+00
        -11   -1    0    0    0    0  0.00000000000E+00  0.00000000000E+00  0.50000499739E+01  0.50000500000E+01  0.51100000000E-03 0.  1.
         11   -1    0    0    0    0 -0.00000000000E+00 -0.00000000000E+00 -0.50000499739E+01  0.50000500000E+01  0.51100000000E-03 0. -1.
         50    1    1    2    0    0 -0.88286941333E-02  0.16750022840E-01 -0.11895099611E-01  0.50000500000E+01  0.50000000000E+01 0. -1.
         50    1    1    2    0    0  0.88286941333E-02 -0.16750022840E-01  0.11895099611E-01  0.50000500000E+01  0.50000000000E+01 0.  1.
</event>
<event>
 4    1  0.4944208E-021  0.5000050E+01  0.7818608E-02  0.2136455E+00
        -11   -1    0    0    0    0  0.00000000000E+00  0.00000000000E+00  0.50000499739E+01  0.50000500000E+01  0.51100000000E-03 0. -1.
         11   -1    0    0    0    0 -0.00000000000E+00 -0.00000000000E+00 -0.50000499739E+01  0.50000500000E+01  0.51100000000E-03 0.  1.
         50    1    1    2    0    0 -0.18132358625E-01 -0.98943447653E-02  0.85628273578E-02  0.50000500000E+01  0.50000000000E+01 0.  0.
         50    1    1    2    0    0  0.18132358625E-01  0.98943447653E-02 -0.85628273578E-02  0.50000500000E+01  0.50000000000E+01 0.  0.
</event>
<event>
 4    1  0.4944208E-021  0.5000050E+01  0.7818608E-02  0.2136455E+00
        -11   -1    0    0    0    0  0.00000000000E+00  0.00000000000E+00  0.50000499739E+01  0.50000500000E+01  0.51100000000E-03 0.  1.
         11   -1    0    0    0    0 -0.00000000000E+00 -0.00000000000E+00 -0.50000499739E+01  0.50000500000E+01  0.51100000000E-03 0. -1.
         50    1    1    2    0    0  0.22071002346E-01  0.71296984969E-03  0.35163943780E-02  0.50000500000E+01  0.50000000000E+01 0. -1.
         50    1    1    2    0    0 -0.22071002346E-01 -0.71296984969E-03 -0.35163943780E-02  0.50000500000E+01  0.50000000000E+01 0.  1.
</event>
<event>
 4    1  0.4944208E-021  0.5000050E+01  0.7818608E-02  0.2136455E+00
        -11   -1    0    0    0    0  0.00000000000E+00  0.00000000000E+00  0.50000499739E+01  0.50000500000E+01  0.51100000000E-03 0. -1.
         11   -1    0    0    0    0 -0.00000000000E+00 -0.00000000000E+00 -0.50000499739E+01  0.50000500000E+01  0.51100000000E-03 0.  1.
         50    1    1    2    0    0  0.14020325620E-01 -0.38064999475E-02  0.16998338967E-01  0.50000500000E+01  0.50000000000E+01 0. -1.
         50    1    1    2    0    0 -0.14020325620E-01  0.38064999475E-02 -0.16998338967E-01  0.50000500000E+01  0.50000000000E+01 0.  1.
</event>
<event>
 4    1  0.4944208E-021  0.5000050E+01  0.7818608E-02  0.2136455E+00
        -11   -1    0    0    0    0  0.00000000000E+00  0.00000000000E+00  0.50000499739E+01  0.50000500000E+01  0.51100000000E-03 0.  1.
         11   -1    0    0    0    0 -0.00000000000E+00 -0.00000000000E+00 -0.50000499739E+01  0.50000500000E+01  0.51100000000E-03 0. -1.
         50    1    1    2    0    0  0.16055030243E-01 -0.12773904787E-01 -0.88918985828E-02  0.50000500000E+01  0.50000000000E+01 0.  1.
         50    1    1    2    0    0 -0.16055030243E-01  0.12773904787E-01  0.88918985828E-02  0.50000500000E+01  0.50000000000E+01 0.  0.
</event>
<event>
 4    1  0.4944208E-021  0.5000050E+01  0.7818608E-02  0.2136455E+00
        -11   -1    0    0    0    0  0.00000000000E+00  0.00000000000E+00  0.50000499739E+01  0.50000500000E+01  0.51100000000E-03 0.  1.
         11   -1    0    0    0    0 -0.00000000000E+00 -0.00000000000E+00 -0.50000499739E+01  0.50000500000E+01  0.51100000000E-03 0. -1.
         50    1    1    2    0    0 -0.15754728657E-01 -0.84505744277E-02  0.13430518113E-01  0.50000500000E+01  0.50000000000E+01 0.  1.
         50    1    1    2    0    0  0.15754728657E-01  0.84505744277E-02 -0.13430518113E-01  0.50000500000E+01  0.50000000000E+01 0. -1.
</event>
<event>
 4    1  0.4944208E-021  0.5000050E+01  0.7818608E-02  0.2136455E+00
        -11   -1    0    0    0    0  0.00000000000E+00  0.00000000000E+00  0.50000499739E+01  0.50000500000E+01  0.51100000000E-03 0. -1.
         11   -1    0    0    0    0 -0.00000000000E+00 -0.00000000000E+00 -0.50000499739E+01  0.50000500000E+01  0.51100000000E-03 0.  1.
         50    1    1    2    0    0 -0.77108416252E-02 -0.12692330621E-01  0.16716762989E-01  0.50000500000E+01  0.50000000000E+01 0. -1.
         50    1    1    2    0    0  0.77108416252E-02  0.12692330621E-01 -0.16716762989E-01  0.50000500000E+01  0.50000000000E+01 0.  1.
</event>
<event>
 4    1  0.4944208E-021  0.5000050E+01  0.7818608E-02  0.2136455E+00
        -11   -1    0    0    0    0  0.00000000000E+00  0.00000000000E+00  0.50000499739E+01  0.50000500000E+01  0.51100000000E-03 0.  1.
         11   -1    0    0    0    0 -0.00000000000E+00 -0.00000000000E+00 -0.50000499739E+01  0.50000500000E+01  0.51100000000E-03 0. -1.
         50    1    1    2    0    0  0.11357033435E-01  0.10268956084E-01 -0.16296282782E-01  0.50000500000E+01  0.50000000000E+01 0. -1.
         50    1    1    2    0    0 -0.11357033435E-01 -0.10268956084E-01  0.16296282782E-01  0.50000500000E+01  0.50000000000E+01 0.  1.
</event>
<event>
 4    1  0.4944208E-021  0.5000050E+01  0.7818608E-02  0.2136455E+00
        -11   -1    0    0    0    0  0.00000000000E+00  0.00000000000E+00  0.50000499739E+01  0.50000500000E+01  0.51100000000E-03 0. -1.
         11   -1    0    0    0    0 -0.00000000000E+00 -0.00000000000E+00 -0.50000499739E+01  0.50000500000E+01  0.51100000000E-03 0.  1.
         50    1    1    2    0    0 -0.84875127838E-02  0.22598222031E-02  0.20563507248E-01  0.50000500000E+01  0.50000000000E+01 0.  0.
         50    1    1    2    0    0  0.84875127838E-02 -0.22598222031E-02 -0.20563507248E-01  0.50000500000E+01  0.50000000000E+01 0.  1.
</event>
<event>
 4    1  0.4944208E-021  0.5000050E+01  0.7818608E-02  0.2136455E+00
        -11   -1    0    0    0    0  0.00000000000E+00  0.00000000000E+00  0.50000499739E+01  0.50000500000E+01  0.51100000000E-03 0.  1.
         11   -1    0    0    0    0 -0.00000000000E+00 -0.00000000000E+00 -0.50000499739E+01  0.50000500000E+01  0.51100000000E-03 0. -1.
         50    1    1    2    0    0 -0.22045142881E-01  0.33675949343E-02  0.16350778909E-02  0.50000500000E+01  0.50000000000E+01 0.  1.
         50    1    1    2    0    0  0.22045142881E-01 -0.33675949343E-02 -0.16350778909E-02  0.50000500000E+01  0.50000000000E+01 0. -1.
</event>
<event>
 4    1  0.4944208E-021  0.5000050E+01  0.7818608E-02  0.2136455E+00
        -11   -1    0    0    0    0  0.00000000000E+00  0.00000000000E+00  0.50000499739E+01  0.50000500000E+01  0.51100000000E-03 0. -1.
         11   -1    0    0    0    0 -0.00000000000E+00 -0.00000000000E+00 -0.50000499739E+01  0.50000500000E+01  0.51100000000E-03 0.  1.
         50    1    1    2    0    0 -0.17979790847E-01 -0.26266550000E-02  0.13031895664E-01  0.50000500000E+01  0.50000000000E+01 0. -1.
         50    1    1    2    0    0  0.17979790847E-01  0.26266550000E-02 -0.13031895664E-01  0.50000500000E+01  0.50000000000E+01 0.  1.
</event>
<event>
 4    1  0.4944208E-021  0.5000050E+01  0.7818608E-02  0.2136455E+00
        -11   -1    0    0    0    0  0.00000000000E+00  0.00000000000E+00  0.50000499739E+01  0.50000500000E+01  0.51100000000E-03 0.  1.
         11   -1    0    0    0    0 -0.00000000000E+00 -0.00000000000E+00 -0.50000499739E+01  0.50000500000E+01  0.51100000000E-03 0. -1.
         50    1    1    2    0    0  0.17261891923E-01 -0.13691273786E-01  0.38181945155E-02  0.50000500000E+01  0.50000000000E+01 0.  0.
         50    1    1    2    0    0 -0.17261891923E-01  0.13691273786E-01 -0.38181945155E-02  0.50000500000E+01  0.50000000000E+01 0.  1.
</event>
<event>
 4    1  0.4944208E-021  0.5000050E+01  0.7818608E-02  0.2136455E+00
        -11   -1    0    0    0    0  0.00000000000E+00  0.00000000000E+00  0.50000499739E+01  0.50000500000E+01  0.51100000000E-03 0. -1.
         11   -1    0    0    0    0 -0.00000000000E+00 -0.00000000000E+00 -0.50000499739E+01  0.50000500000E+01  0.51100000000E-03 0.  1.
         50    1    1    2    0    0 -0.15338060386E-01 -0.12308019463E-01  0.10642324018E-01  0.50000500000E+01  0.50000000000E+01 0. -1.
         50    1    1    2    0    0  0.15338060386E-01  0.12308019463E-01 -0.10642324018E-01  0.50000500000E+01  0.50000000000E+01 0. -1.
</event>
<event>
 4    1  0.4944208E-021  0.5000050E+01  0.7818608E-02  0.2136455E+00
        -11   -1    0    0    0    0  0.00000000000E+00  0.00000000000E+00  0.50000499739E+01  0.50000500000E+01  0.51100000000E-03 0. -1.
         11   -1    0    0    0    0 -0.00000000000E+00 -0.00000000000E+00 -0.50000499739E+01  0.50000500000E+01  0.51100000000E-03 0.  1.
         50    1    1    2    0    0 -0.17248540513E-01  0.39028787779E-02 -0.13684220380E-01  0.50000500000E+01  0.50000000000E+01 0.  1.
         50    1    1    2    0    0  0.17248540513E-01 -0.39028787779E-02  0.13684220380E-01  0.50000500000E+01  0.50000000000E+01 0. -1.
</event>
<event>
 4    1  0.4944208E-021  0.5000050E+01  0.7818608E-02  0.2136455E+00
        -11   -1    0    0    0    0  0.00000000000E+00  0.00000000000E+00  0.50000499739E+01  0.50000500000E+01  0.51100000000E-03 0.  1.
         11   -1    0    0    0    0 -0.00000000000E+00 -0.00000000000E+00 -0.50000499739E+01  0.50000500000E+01  0.51100000000E-03 0. -1.
         50    1    1    2    0    0 -0.57964041358E-02  0.14000265122E-01 -0.16443745790E-01  0.50000500000E+01  0.50000000000E+01 0. -1.
         50    1    1    2    0    0  0.57964041358E-02 -0.14000265122E-01  0.16443745790E-01  0.50000500000E+01  0.50000000000E+01 0.  0.
</event>
<event>
 4    1  0.4944208E-021  0.5000050E+01  0.7818608E-02  0.2136455E+00
        -11   -1    0    0    0    0  0.00000000000E+00  0.00000000000E+00  0.50000499739E+01  0.50000500000E+01  0.51100000000E-03 0. -1.
         11   -1    0    0    0    0 -0.00000000000E+00 -0.00000000000E+00 -0.50000499739E+01  0.50000500000E+01  0.51100000000E-03 0.  1.
         50    1    1    2    0    0 -0.13237370991E-01  0.72508414742E-02 -0.16498478935E-01  0.50000500000E+01  0.50000000000E+01 0.  0.
         50    1    1    2    0    0  0.13237370991E-01 -0.72508414742E-02  0.16498478935E-01  0.50000500000E+01  0.50000000000E+01 0.  0.
</event>
<event>
 4    1  0.4944208E-021  0.5000050E+01  0.7818608E-02  0.2136455E+00
        -11   -1    0    0    0    0  0.00000000000E+00  0.00000000000E+00  0.50000499739E+01  0.50000500000E+01  0.51100000000E-03 0.  1.
         11   -1    0    0    0    0 -0.00000000000E+00 -0.00000000000E+00 -0.50000499739E+01  0.50000500000E+01  0.51100000000E-03 0. -1.
         50    1    1    2    0    0 -0.18447761068E-01  0.66853346131E-02  0.10723288334E-01  0.50000500000E+01  0.50000000000E+01 0.  0.
         50    1    1    2    0    0  0.18447761068E-01 -0.66853346131E-02 -0.10723288334E-01  0.50000500000E+01  0.50000000000E+01 0.  1.
</event>
<event>
 4    1  0.4944208E-021  0.5000050E+01  0.7818608E-02  0.2136455E+00
        -11   -1    0    0    0    0  0.00000000000E+00  0.00000000000E+00  0.50000499739E+01  0.50000500000E+01  0.51100000000E-03 0.  1.
         11   -1    0    0    0    0 -0.00000000000E+00 -0.00000000000E+00 -0.50000499739E+01  0.50000500000E+01  0.51100000000E-03 0. -1.
         50    1    1    2    0    0 -0.13608509004E-01 -0.13104505289E-01 -0.11961727459E-01  0.50000500000E+01  0.50000000000E+01 0.  1.
         50    1    1    2    0    0  0.13608509004E-01  0.13104505289E-01  0.11961727459E-01  0.50000500000E+01  0.50000000000E+01 0.  1.
</event>
<event>
 4    1  0.4944208E-021  0.5000050E+01  0.7818608E-02  0.2136455E+00
        -11   -1    0    0    0    0  0.00000000000E+00  0.00000000000E+00  0.50000499739E+01  0.50000500000E+01  0.51100000000E-03 0. -1.
         11   -1    0    0    0    0 -0.00000000000E+00 -0.00000000000E+00 -0.50000499739E+01  0.50000500000E+01  0.51100000000E-03 0.  1.
         50    1    1    2    0    0  0.17069385634E-01  0.13383892814E-01  0.54323095654E-02  0.50000500000E+01  0.50000000000E+01 0. -1.
         50    1    1    2    0    0 -0.17069385634E-01 -0.13383892814E-01 -0.54323095654E-02  0.50000500000E+01  0.50000000000E+01 0.  0.
</event>
<event>
 4    1  0.4944208E-021  0.5000050E+01  0.7818608E-02  0.2136455E+00
        -11   -1    0    0    0    0  0.00000000000E+00  0.00000000000E+00  0.50000499739E+01  0.50000500000E+01  0.51100000000E-03 0. -1.
         11   -1    0    0    0    0 -0.00000000000E+00 -0.00000000000E+00 -0.50000499739E+01  0.50000500000E+01  0.51100000000E-03 0.  1.
         50    1    1    2    0    0  0.89404168186E-02  0.20232909938E-01 -0.32712081174E-02  0.50000500000E+01  0.50000000000E+01 0.  0.
         50    1    1    2    0    0 -0.89404168186E-02 -0.20232909938E-01  0.32712081174E-02  0.50000500000E+01  0.50000000000E+01 0.  1.
</event>
<event>
 4    1  0.4944208E-021  0.5000050E+01  0.7818608E-02  0.2136455E+00
        -11   -1    0    0    0    0  0.00000000000E+00  0.00000000000E+00  0.50000499739E+01  0.50000500000E+01  0.51100000000E-03 0.  1.
         11   -1    0    0    0    0 -0.00000000000E+00 -0.00000000000E+00 -0.50000499739E+01  0.50000500000E+01  0.51100000000E-03 0. -1.
         50    1    1    2    0    0 -0.10261873822E-01 -0.14477383638E-01 -0.13605212555E-01  0.50000500000E+01  0.50000000000E+01 0. -1.
         50    1    1    2    0    0  0.10261873822E-01  0.14477383638E-01  0.13605212555E-01  0.50000500000E+01  0.50000000000E+01 0.  1.
</event>
<event>
 4    1  0.4944208E-021  0.5000050E+01  0.7818608E-02  0.2136455E+00
        -11   -1    0    0    0    0  0.00000000000E+00  0.00000000000E+00  0.50000499739E+01  0.50000500000E+01  0.51100000000E-03 0.  1.
         11   -1    0    0    0    0 -0.00000000000E+00 -0.00000000000E+00 -0.50000499739E+01  0.50000500000E+01  0.51100000000E-03 0. -1.
         50    1    1    2    0    0 -0.16254054815E-01  0.15293687594E-01 -0.13825056437E-02  0.50000500000E+01  0.50000000000E+01 0. -1.
         50    1    1    2    0    0  0.16254054815E-01 -0.15293687594E-01  0.13825056437E-02  0.50000500000E+01  0.50000000000E+01 0.  1.
</event>
<event>
 4    1  0.4944208E-021  0.5000050E+01  0.7818608E-02  0.2136455E+00
        -11   -1    0    0    0    0  0.00000000000E+00  0.00000000000E+00  0.50000499739E+01  0.50000500000E+01  0.51100000000E-03 0. -1.
         11   -1    0    0    0    0 -0.00000000000E+00 -0.00000000000E+00 -0.50000499739E+01  0.50000500000E+01  0.51100000000E-03 0.  1.
         50    1    1    2    0    0 -0.42362756588E-02  0.31703311849E-02  0.21725686841E-01  0.50000500000E+01  0.50000000000E+01 0. -1.
         50    1    1    2    0    0  0.42362756588E-02 -0.31703311849E-02 -0.21725686841E-01  0.50000500000E+01  0.50000000000E+01 0.  0.
</event>
<event>
 4    1  0.4944208E-021  0.5000050E+01  0.7818608E-02  0.2136455E+00
        -11   -1    0    0    0    0  0.00000000000E+00  0.00000000000E+00  0.50000499739E+01  0.50000500000E+01  0.51100000000E-03 0.  1.
         11   -1    0    0    0    0 -0.00000000000E+00 -0.00000000000E+00 -0.50000499739E+01  0.50000500000E+01  0.51100000000E-03 0. -1.
         50    1    1    2    0    0 -0.10880255030E-01 -0.25862452830E-05 -0.19535161729E-01  0.50000500000E+01  0.50000000000E+01 0. -1.
         50    1    1    2    0    0  0.10880255030E-01  0.25862452830E-05  0.19535161729E-01  0.50000500000E+01  0.50000000000E+01 0.  1.
</event>
<event>
 4    1  0.4944208E-021  0.5000050E+01  0.7818608E-02  0.2136455E+00
        -11   -1    0    0    0    0  0.00000000000E+00  0.00000000000E+00  0.50000499739E+01  0.50000500000E+01  0.51100000000E-03 0. -1.
         11   -1    0    0    0    0 -0.00000000000E+00 -0.00000000000E+00 -0.50000499739E+01  0.50000500000E+01  0.51100000000E-03 0.  1.
         50    1    1    2    0    0  0.74686741399E-02  0.20922362593E-01 -0.25448281128E-02  0.50000500000E+01  0.50000000000E+01 0. -1.
         50    1    1    2    0    0 -0.74686741399E-02 -0.20922362593E-01  0.25448281128E-02  0.50000500000E+01  0.50000000000E+01 0.  0.
</event>
<event>
 4    1  0.4944208E-021  0.5000050E+01  0.7818608E-02  0.2136455E+00
        -11   -1    0    0    0    0  0.00000000000E+00  0.00000000000E+00  0.50000499739E+01  0.50000500000E+01  0.51100000000E-03 0.  1.
         11   -1    0    0    0    0 -0.00000000000E+00 -0.00000000000E+00 -0.50000499739E+01  0.50000500000E+01  0.51100000000E-03 0. -1.
         50    1    1    2    0    0 -0.20244610739E-01  0.84192179398E-02  0.43903308892E-02  0.50000500000E+01  0.50000000000E+01 0.  1.
         50    1    1    2    0    0  0.20244610739E-01 -0.84192179398E-02 -0.43903308892E-02  0.50000500000E+01  0.50000000000E+01 0. -1.
</event>
<event>
 4    1  0.4944208E-021  0.5000050E+01  0.7818608E-02  0.2136455E+00
        -11   -1    0    0    0    0  0.00000000000E+00  0.00000000000E+00  0.50000499739E+01  0.50000500000E+01  0.51100000000E-03 0.  1.
         11   -1    0    0    0    0 -0.00000000000E+00 -0.00000000000E+00 -0.50000499739E+01  0.50000500000E+01  0.51100000000E-03 0. -1.
         50    1    1    2    0    0 -0.89945016352E-03 -0.22336926557E-01 -0.50517463233E-03  0.50000500000E+01  0.50000000000E+01 0.  1.
         50    1    1    2    0    0  0.89945016352E-03  0.22336926557E-01  0.50517463233E-03  0.50000500000E+01  0.50000000000E+01 0.  0.
</event>
<event>
 4    1  0.4944208E-021  0.5000050E+01  0.7818608E-02  0.2136455E+00
        -11   -1    0    0    0    0  0.00000000000E+00  0.00000000000E+00  0.50000499739E+01  0.50000500000E+01  0.51100000000E-03 0. -1.
         11   -1    0    0    0    0 -0.00000000000E+00 -0.00000000000E+00 -0.50000499739E+01  0.50000500000E+01  0.51100000000E-03 0.  1.
         50    1    1    2    0    0 -0.17951843027E-01  0.91331268208E-02 -0.97118394973E-02  0.50000500000E+01  0.50000000000E+01 0.  1.
         50    1    1    2    0    0  0.17951843027E-01 -0.91331268208E-02  0.97118394973E-02  0.50000500000E+01  0.50000000000E+01 0. -1.
</event>
<event>
 4    1  0.4944208E-021  0.5000050E+01  0.7818608E-02  0.2136455E+00
        -11   -1    0    0    0    0  0.00000000000E+00  0.00000000000E+00  0.50000499739E+01  0.50000500000E+01  0.51100000000E-03 0. -1.
         11   -1    0    0    0    0 -0.00000000000E+00 -0.00000000000E+00 -0.50000499739E+01  0.50000500000E+01  0.51100000000E-03 0.  1.
         50    1    1    2    0    0 -0.19752125077E-01  0.10466346792E-01 -0.55824706779E-03  0.50000500000E+01  0.50000000000E+01 0. -1.
         50    1    1    2    0    0  0.19752125077E-01 -0.10466346792E-01  0.55824706779E-03  0.50000500000E+01  0.50000000000E+01 0.  0.
</event>
<event>
 4    1  0.4944208E-021  0.5000050E+01  0.7818608E-02  0.2136455E+00
        -11   -1    0    0    0    0  0.00000000000E+00  0.00000000000E+00  0.50000499739E+01  0.50000500000E+01  0.51100000000E-03 0. -1.
         11   -1    0    0    0    0 -0.00000000000E+00 -0.00000000000E+00 -0.50000499739E+01  0.50000500000E+01  0.51100000000E-03 0.  1.
         50    1    1    2    0    0 -0.32908555534E-02 -0.10029178860E-01 -0.19712644194E-01  0.50000500000E+01  0.50000000000E+01 0.  1.
         50    1    1    2    0    0  0.32908555534E-02  0.10029178860E-01  0.19712644194E-01  0.50000500000E+01  0.50000000000E+01 0.  0.
</event>
<event>
 4    1  0.4944208E-021  0.5000050E+01  0.7818608E-02  0.2136455E+00
        -11   -1    0    0    0    0  0.00000000000E+00  0.00000000000E+00  0.50000499739E+01  0.50000500000E+01  0.51100000000E-03 0.  1.
         11   -1    0    0    0    0 -0.00000000000E+00 -0.00000000000E+00 -0.50000499739E+01  0.50000500000E+01  0.51100000000E-03 0. -1.
         50    1    1    2    0    0 -0.15178916275E-01  0.11366783135E-02 -0.16380200339E-01  0.50000500000E+01  0.50000000000E+01 0. -1.
         50    1    1    2    0    0  0.15178916275E-01 -0.11366783135E-02  0.16380200339E-01  0.50000500000E+01  0.50000000000E+01 0.  0.
</event>
<event>
 4    1  0.4944208E-021  0.5000050E+01  0.7818608E-02  0.2136455E+00
        -11   -1    0    0    0    0  0.00000000000E+00  0.00000000000E+00  0.50000499739E+01  0.50000500000E+01  0.51100000000E-03 0. -1.
         11   -1    0    0    0    0 -0.00000000000E+00 -0.00000000000E+00 -0.50000499739E+01  0.50000500000E+01  0.51100000000E-03 0.  1.
         50    1    1    2    0    0 -0.22149194553E-01  0.15176094812E-02 -0.26669349690E-02  0.50000500000E+01  0.50000000000E+01 0.  1.
         50    1    1    2    0    0  0.22149194553E-01 -0.15176094812E-02  0.26669349690E-02  0.50000500000E+01  0.50000000000E+01 0. -1.
</event>
<event>
 4    1  0.4944208E-021  0.5000050E+01  0.7818608E-02  0.2136455E+00
        -11   -1    0    0    0    0  0.00000000000E+00  0.00000000000E+00  0.50000499739E+01  0.50000500000E+01  0.51100000000E-03 0. -1.
         11   -1    0    0    0    0 -0.00000000000E+00 -0.00000000000E+00 -0.50000499739E+01  0.50000500000E+01  0.51100000000E-03 0.  1.
         50    1    1    2    0    0  0.59642551638E-02  0.20451131758E-01  0.67956876148E-02  0.50000500000E+01  0.50000000000E+01 0.  1.
         50    1    1    2    0    0 -0.59642551638E-02 -0.20451131758E-01 -0.67956876148E-02  0.50000500000E+01  0.50000000000E+01 0.  0.
</event>
<event>
 4    1  0.4944208E-021  0.5000050E+01  0.7818608E-02  0.2136455E+00
        -11   -1    0    0    0    0  0.00000000000E+00  0.00000000000E+00  0.50000499739E+01  0.50000500000E+01  0.51100000000E-03 0.  1.
         11   -1    0    0    0    0 -0.00000000000E+00 -0.00000000000E+00 -0.50000499739E+01  0.50000500000E+01  0.51100000000E-03 0. -1.
         50    1    1    2    0    0 -0.81866383652E-02 -0.63478210437E-02 -0.19816322067E-01  0.50000500000E+01  0.50000000000E+01 0.  0.
         50    1    1    2    0    0  0.81866383652E-02  0.63478210437E-02  0.19816322067E-01  0.50000500000E+01  0.50000000000E+01 0.  0.
</event>
<event>
 4    1  0.4944208E-021  0.5000050E+01  0.7818608E-02  0.2136455E+00
        -11   -1    0    0    0    0  0.00000000000E+00  0.00000000000E+00  0.50000499739E+01  0.50000500000E+01  0.51100000000E-03 0. -1.
         11   -1    0    0    0    0 -0.00000000000E+00 -0.00000000000E+00 -0.50000499739E+01  0.50000500000E+01  0.51100000000E-03 0.  1.
         50    1    1    2    0    0 -0.13580699641E-01 -0.14778112667E-01 -0.98577118669E-02  0.50000500000E+01  0.50000000000E+01 0. -1.
         50    1    1    2    0    0  0.13580699641E-01  0.14778112667E-01  0.98577118669E-02  0.50000500000E+01  0.50000000000E+01 0.  0.
</event>
<event>
 4    1  0.4944208E-021  0.5000050E+01  0.7818608E-02  0.2136455E+00
        -11   -1    0    0    0    0  0.00000000000E+00  0.00000000000E+00  0.50000499739E+01  0.50000500000E+01  0.51100000000E-03 0.  1.
         11   -1    0    0    0    0 -0.00000000000E+00 -0.00000000000E+00 -0.50000499739E+01  0.50000500000E+01  0.51100000000E-03 0. -1.
         50    1    1    2    0    0  0.18040190200E-01 -0.23754408421E-02  0.12996588720E-01  0.50000500000E+01  0.50000000000E+01 0.  1.
         50    1    1    2    0    0 -0.18040190200E-01  0.23754408421E-02 -0.12996588720E-01  0.50000500000E+01  0.50000000000E+01 0. -1.
</event>
<event>
 4    1  0.4944208E-021  0.5000050E+01  0.7818608E-02  0.2136455E+00
        -11   -1    0    0    0    0  0.00000000000E+00  0.00000000000E+00  0.50000499739E+01  0.50000500000E+01  0.51100000000E-03 0. -1.
         11   -1    0    0    0    0 -0.00000000000E+00 -0.00000000000E+00 -0.50000499739E+01  0.50000500000E+01  0.51100000000E-03 0.  1.
         50    1    1    2    0    0 -0.12392412298E-01  0.38042179901E-02 -0.18219729496E-01  0.50000500000E+01  0.50000000000E+01 0.  0.
         50    1    1    2    0    0  0.12392412298E-01 -0.38042179901E-02  0.18219729496E-01  0.50000500000E+01  0.50000000000E+01 0. -1.
</event>
<event>
 4    1  0.4944208E-021  0.5000050E+01  0.7818608E-02  0.2136455E+00
        -11   -1    0    0    0    0  0.00000000000E+00  0.00000000000E+00  0.50000499739E+01  0.50000500000E+01  0.51100000000E-03 0. -1.
         11   -1    0    0    0    0 -0.00000000000E+00 -0.00000000000E+00 -0.50000499739E+01  0.50000500000E+01  0.51100000000E-03 0.  1.
         50    1    1    2    0    0  0.15507159949E-01 -0.44362848426E-02 -0.15487087108E-01  0.50000500000E+01  0.50000000000E+01 0.  0.
         50    1    1    2    0    0 -0.15507159949E-01  0.44362848426E-02  0.15487087108E-01  0.50000500000E+01  0.50000000000E+01 0.  0.
</event>
<event>
 4    1  0.4944208E-021  0.5000050E+01  0.7818608E-02  0.2136455E+00
        -11   -1    0    0    0    0  0.00000000000E+00  0.00000000000E+00  0.50000499739E+01  0.50000500000E+01  0.51100000000E-03 0.  1.
         11   -1    0    0    0    0 -0.00000000000E+00 -0.00000000000E+00 -0.50000499739E+01  0.50000500000E+01  0.51100000000E-03 0. -1.
         50    1    1    2    0    0 -0.51573466568E-02 -0.22992588930E-02 -0.21636027454E-01  0.50000500000E+01  0.50000000000E+01 0. -1.
         50    1    1    2    0    0  0.51573466568E-02  0.22992588930E-02  0.21636027454E-01  0.50000500000E+01  0.50000000000E+01 0.  0.
</event>
<event>
 4    1  0.4944208E-021  0.5000050E+01  0.7818608E-02  0.2136455E+00
        -11   -1    0    0    0    0  0.00000000000E+00  0.00000000000E+00  0.50000499739E+01  0.50000500000E+01  0.51100000000E-03 0. -1.
         11   -1    0    0    0    0 -0.00000000000E+00 -0.00000000000E+00 -0.50000499739E+01  0.50000500000E+01  0.51100000000E-03 0.  1.
         50    1    1    2    0    0  0.15842233963E-01 -0.10704075382E-01 -0.11595209928E-01  0.50000500000E+01  0.50000000000E+01 0. -1.
         50    1    1    2    0    0 -0.15842233963E-01  0.10704075382E-01  0.11595209928E-01  0.50000500000E+01  0.50000000000E+01 0.  1.
</event>
<event>
 4    1  0.4944208E-021  0.5000050E+01  0.7818608E-02  0.2136455E+00
        -11   -1    0    0    0    0  0.00000000000E+00  0.00000000000E+00  0.50000499739E+01  0.50000500000E+01  0.51100000000E-03 0.  1.
         11   -1    0    0    0    0 -0.00000000000E+00 -0.00000000000E+00 -0.50000499739E+01  0.50000500000E+01  0.51100000000E-03 0. -1.
         50    1    1    2    0    0 -0.22322551458E-01  0.99688989693E-04  0.13024048864E-02  0.50000500000E+01  0.50000000000E+01 0. -1.
         50    1    1    2    0    0  0.22322551458E-01 -0.99688989693E-04 -0.13024048864E-02  0.50000500000E+01  0.50000000000E+01 0.  1.
</event>
<event>
 4    1  0.4944208E-021  0.5000050E+01  0.7818608E-02  0.2136455E+00
        -11   -1    0    0    0    0  0.00000000000E+00  0.00000000000E+00  0.50000499739E+01  0.50000500000E+01  0.51100000000E-03 0. -1.
         11   -1    0    0    0    0 -0.00000000000E+00 -0.00000000000E+00 -0.50000499739E+01  0.50000500000E+01  0.51100000000E-03 0.  1.
         50    1    1    2    0    0 -0.39984999297E-02 -0.11399378459E-01  0.18816712494E-01  0.50000500000E+01  0.50000000000E+01 0.  0.
         50    1    1    2    0    0  0.39984999297E-02  0.11399378459E-01 -0.18816712494E-01  0.50000500000E+01  0.50000000000E+01 0.  1.
</event>
<event>
 4    1  0.4944208E-021  0.5000050E+01  0.7818608E-02  0.2136455E+00
        -11   -1    0    0    0    0  0.00000000000E+00  0.00000000000E+00  0.50000499739E+01  0.50000500000E+01  0.51100000000E-03 0. -1.
         11   -1    0    0    0    0 -0.00000000000E+00 -0.00000000000E+00 -0.50000499739E+01  0.50000500000E+01  0.51100000000E-03 0.  1.
         50    1    1    2    0    0  0.19280426222E-01 -0.40919354824E-02  0.10560479568E-01  0.50000500000E+01  0.50000000000E+01 0. -1.
         50    1    1    2    0    0 -0.19280426222E-01  0.40919354824E-02 -0.10560479568E-01  0.50000500000E+01  0.50000000000E+01 0.  1.
</event>
<event>
 4    1  0.4944208E-021  0.5000050E+01  0.7818608E-02  0.2136455E+00
        -11   -1    0    0    0    0  0.00000000000E+00  0.00000000000E+00  0.50000499739E+01  0.50000500000E+01  0.51100000000E-03 0.  1.
         11   -1    0    0    0    0 -0.00000000000E+00 -0.00000000000E+00 -0.50000499739E+01  0.50000500000E+01  0.51100000000E-03 0. -1.
         50    1    1    2    0    0  0.53445012197E-02 -0.21641217758E-01  0.17596876543E-02  0.50000500000E+01  0.50000000000E+01 0.  1.
         50    1    1    2    0    0 -0.53445012197E-02  0.21641217758E-01 -0.17596876543E-02  0.50000500000E+01  0.50000000000E+01 0. -1.
</event>
<event>
 4    1  0.4944208E-021  0.5000050E+01  0.7818608E-02  0.2136455E+00
        -11   -1    0    0    0    0  0.00000000000E+00  0.00000000000E+00  0.50000499739E+01  0.50000500000E+01  0.51100000000E-03 0.  1.
         11   -1    0    0    0    0 -0.00000000000E+00 -0.00000000000E+00 -0.50000499739E+01  0.50000500000E+01  0.51100000000E-03 0. -1.
         50    1    1    2    0    0  0.22305272586E-01  0.15558248386E-02 -0.23816788292E-03  0.50000500000E+01  0.50000000000E+01 0. -1.
         50    1    1    2    0    0 -0.22305272586E-01 -0.15558248386E-02  0.23816788292E-03  0.50000500000E+01  0.50000000000E+01 0.  0.
</event>
<event>
 4    1  0.4944208E-021  0.5000050E+01  0.7818608E-02  0.2136455E+00
        -11   -1    0    0    0    0  0.00000000000E+00  0.00000000000E+00  0.50000499739E+01  0.50000500000E+01  0.51100000000E-03 0.  1.
         11   -1    0    0    0    0 -0.00000000000E+00 -0.00000000000E+00 -0.50000499739E+01  0.50000500000E+01  0.51100000000E-03 0. -1.
         50    1    1    2    0    0 -0.74443616178E-02  0.20286422306E-01  0.57484824202E-02  0.50000500000E+01  0.50000000000E+01 0. -1.
         50    1    1    2    0    0  0.74443616178E-02 -0.20286422306E-01 -0.57484824202E-02  0.50000500000E+01  0.50000000000E+01 0.  1.
</event>
<event>
 4    1  0.4944208E-021  0.5000050E+01  0.7818608E-02  0.2136455E+00
        -11   -1    0    0    0    0  0.00000000000E+00  0.00000000000E+00  0.50000499739E+01  0.50000500000E+01  0.51100000000E-03 0. -1.
         11   -1    0    0    0    0 -0.00000000000E+00 -0.00000000000E+00 -0.50000499739E+01  0.50000500000E+01  0.51100000000E-03 0.  1.
         50    1    1    2    0    0 -0.10046939395E-02  0.19696651244E-01 -0.10537315590E-01  0.50000500000E+01  0.50000000000E+01 0.  1.
         50    1    1    2    0    0  0.10046939395E-02 -0.19696651244E-01  0.10537315590E-01  0.50000500000E+01  0.50000000000E+01 0. -1.
</event>
<event>
 4    1  0.4944208E-021  0.5000050E+01  0.7818608E-02  0.2136455E+00
        -11   -1    0    0    0    0  0.00000000000E+00  0.00000000000E+00  0.50000499739E+01  0.50000500000E+01  0.51100000000E-03 0.  1.
         11   -1    0    0    0    0 -0.00000000000E+00 -0.00000000000E+00 -0.50000499739E+01  0.50000500000E+01  0.51100000000E-03 0. -1.
         50    1    1    2    0    0 -0.21616398945E-01 -0.40429993050E-02  0.40482037076E-02  0.50000500000E+01  0.50000000000E+01 0.  0.
         50    1    1    2    0    0  0.21616398945E-01  0.40429993050E-02 -0.40482037076E-02  0.50000500000E+01  0.50000000000E+01 0.  0.
</event>
<event>
 4    1  0.4944208E-021  0.5000050E+01  0.7818608E-02  0.2136455E+00
        -11   -1    0    0    0    0  0.00000000000E+00  0.00000000000E+00  0.50000499739E+01  0.50000500000E+01  0.51100000000E-03 0. -1.
         11   -1    0    0    0    0 -0.00000000000E+00 -0.00000000000E+00 -0.50000499739E+01  0.50000500000E+01  0.51100000000E-03 0.  1.
         50    1    1    2    0    0  0.12071140040E-03  0.39906217137E-02 -0.22001428751E-01  0.50000500000E+01  0.50000000000E+01 0.  1.
         50    1    1    2    0    0 -0.12071140040E-03 -0.39906217137E-02  0.22001428751E-01  0.50000500000E+01  0.50000000000E+01 0.  0.
</event>
<event>
 4    1  0.4944208E-021  0.5000050E+01  0.7818608E-02  0.2136455E+00
        -11   -1    0    0    0    0  0.00000000000E+00  0.00000000000E+00  0.50000499739E+01  0.50000500000E+01  0.51100000000E-03 0. -1.
         11   -1    0    0    0    0 -0.00000000000E+00 -0.00000000000E+00 -0.50000499739E+01  0.50000500000E+01  0.51100000000E-03 0.  1.
         50    1    1    2    0    0  0.67257741038E-02 -0.20742611987E-01 -0.49508090930E-02  0.50000500000E+01  0.50000000000E+01 0. -1.
         50    1    1    2    0    0 -0.67257741038E-02  0.20742611987E-01  0.49508090930E-02  0.50000500000E+01  0.50000000000E+01 0.  0.
</event>
<event>
 4    1  0.4944208E-021  0.5000050E+01  0.7818608E-02  0.2136455E+00
        -11   -1    0    0    0    0  0.00000000000E+00  0.00000000000E+00  0.50000499739E+01  0.50000500000E+01  0.51100000000E-03 0.  1.
         11   -1    0    0    0    0 -0.00000000000E+00 -0.00000000000E+00 -0.50000499739E+01  0.50000500000E+01  0.51100000000E-03 0. -1.
         50    1    1    2    0    0 -0.19381779526E-01 -0.10317638522E-01  0.42303023213E-02  0.50000500000E+01  0.50000000000E+01 0.  1.
         50    1    1    2    0    0  0.19381779526E-01  0.10317638522E-01 -0.42303023213E-02  0.50000500000E+01  0.50000000000E+01 0. -1.
</event>
<event>
 4    1  0.4944208E-021  0.5000050E+01  0.7818608E-02  0.2136455E+00
        -11   -1    0    0    0    0  0.00000000000E+00  0.00000000000E+00  0.50000499739E+01  0.50000500000E+01  0.51100000000E-03 0. -1.
         11   -1    0    0    0    0 -0.00000000000E+00 -0.00000000000E+00 -0.50000499739E+01  0.50000500000E+01  0.51100000000E-03 0.  1.
         50    1    1    2    0    0 -0.71618389334E-02 -0.10929367445E-01  0.18145508820E-01  0.50000500000E+01  0.50000000000E+01 0.  0.
         50    1    1    2    0    0  0.71618389334E-02  0.10929367445E-01 -0.18145508820E-01  0.50000500000E+01  0.50000000000E+01 0.  0.
</event>
<event>
 4    1  0.4944208E-021  0.5000050E+01  0.7818608E-02  0.2136455E+00
        -11   -1    0    0    0    0  0.00000000000E+00  0.00000000000E+00  0.50000499739E+01  0.50000500000E+01  0.51100000000E-03 0.  1.
         11   -1    0    0    0    0 -0.00000000000E+00 -0.00000000000E+00 -0.50000499739E+01  0.50000500000E+01  0.51100000000E-03 0. -1.
         50    1    1    2    0    0 -0.11874553725E-01 -0.14572508462E-01 -0.12109478558E-01  0.50000500000E+01  0.50000000000E+01 0.  0.
         50    1    1    2    0    0  0.11874553725E-01  0.14572508462E-01  0.12109478558E-01  0.50000500000E+01  0.50000000000E+01 0.  0.
</event>
<event>
 4    1  0.4944208E-021  0.5000050E+01  0.7818608E-02  0.2136455E+00
        -11   -1    0    0    0    0  0.00000000000E+00  0.00000000000E+00  0.50000499739E+01  0.50000500000E+01  0.51100000000E-03 0.  1.
         11   -1    0    0    0    0 -0.00000000000E+00 -0.00000000000E+00 -0.50000499739E+01  0.50000500000E+01  0.51100000000E-03 0. -1.
         50    1    1    2    0    0 -0.28332924926E-02 -0.50654420229E-02  0.21594356919E-01  0.50000500000E+01  0.50000000000E+01 0.  0.
         50    1    1    2    0    0  0.28332924926E-02  0.50654420229E-02 -0.21594356919E-01  0.50000500000E+01  0.50000000000E+01 0. -1.
</event>
<event>
 4    1  0.4944208E-021  0.5000050E+01  0.7818608E-02  0.2136455E+00
        -11   -1    0    0    0    0  0.00000000000E+00  0.00000000000E+00  0.50000499739E+01  0.50000500000E+01  0.51100000000E-03 0. -1.
         11   -1    0    0    0    0 -0.00000000000E+00 -0.00000000000E+00 -0.50000499739E+01  0.50000500000E+01  0.51100000000E-03 0.  1.
         50    1    1    2    0    0  0.11451976442E-01 -0.18158976227E-01 -0.62535044554E-02  0.50000500000E+01  0.50000000000E+01 0.  0.
         50    1    1    2    0    0 -0.11451976442E-01  0.18158976227E-01  0.62535044554E-02  0.50000500000E+01  0.50000000000E+01 0.  0.
</event>
<event>
 4    1  0.4944208E-021  0.5000050E+01  0.7818608E-02  0.2136455E+00
        -11   -1    0    0    0    0  0.00000000000E+00  0.00000000000E+00  0.50000499739E+01  0.50000500000E+01  0.51100000000E-03 0. -1.
         11   -1    0    0    0    0 -0.00000000000E+00 -0.00000000000E+00 -0.50000499739E+01  0.50000500000E+01  0.51100000000E-03 0.  1.
         50    1    1    2    0    0  0.53066839943E-03 -0.12029989941E-01  0.18841449866E-01  0.50000500000E+01  0.50000000000E+01 0.  0.
         50    1    1    2    0    0 -0.53066839943E-03  0.12029989941E-01 -0.18841449866E-01  0.50000500000E+01  0.50000000000E+01 0.  1.
</event>
<event>
 4    1  0.4944208E-021  0.5000050E+01  0.7818608E-02  0.2136455E+00
        -11   -1    0    0    0    0  0.00000000000E+00  0.00000000000E+00  0.50000499739E+01  0.50000500000E+01  0.51100000000E-03 0. -1.
         11   -1    0    0    0    0 -0.00000000000E+00 -0.00000000000E+00 -0.50000499739E+01  0.50000500000E+01  0.51100000000E-03 0.  1.
         50    1    1    2    0    0  0.50418301829E-02  0.98868862148E-02  0.19412159318E-01  0.50000500000E+01  0.50000000000E+01 0.  0.
         50    1    1    2    0    0 -0.50418301829E-02 -0.98868862148E-02 -0.19412159318E-01  0.50000500000E+01  0.50000000000E+01 0.  0.
</event>
<event>
 4    1  0.4944208E-021  0.5000050E+01  0.7818608E-02  0.2136455E+00
        -11   -1    0    0    0    0  0.00000000000E+00  0.00000000000E+00  0.50000499739E+01  0.50000500000E+01  0.51100000000E-03 0.  1.
         11   -1    0    0    0    0 -0.00000000000E+00 -0.00000000000E+00 -0.50000499739E+01  0.50000500000E+01  0.51100000000E-03 0. -1.
         50    1    1    2    0    0 -0.18776226338E-01  0.66644781551E-02  0.10150889391E-01  0.50000500000E+01  0.50000000000E+01 0.  0.
         50    1    1    2    0    0  0.18776226338E-01 -0.66644781551E-02 -0.10150889391E-01  0.50000500000E+01  0.50000000000E+01 0.  1.
</event>
<event>
 4    1  0.4944208E-021  0.5000050E+01  0.7818608E-02  0.2136455E+00
        -11   -1    0    0    0    0  0.00000000000E+00  0.00000000000E+00  0.50000499739E+01  0.50000500000E+01  0.51100000000E-03 0.  1.
         11   -1    0    0    0    0 -0.00000000000E+00 -0.00000000000E+00 -0.50000499739E+01  0.50000500000E+01  0.51100000000E-03 0. -1.
         50    1    1    2    0    0 -0.37135512107E-03  0.68607354407E-02 -0.21278977997E-01  0.50000500000E+01  0.50000000000E+01 0. -1.
         50    1    1    2    0    0  0.37135512107E-03 -0.68607354407E-02  0.21278977997E-01  0.50000500000E+01  0.50000000000E+01 0.  0.
</event>
<event>
 4    1  0.4944208E-021  0.5000050E+01  0.7818608E-02  0.2136455E+00
        -11   -1    0    0    0    0  0.00000000000E+00  0.00000000000E+00  0.50000499739E+01  0.50000500000E+01  0.51100000000E-03 0.  1.
         11   -1    0    0    0    0 -0.00000000000E+00 -0.00000000000E+00 -0.50000499739E+01  0.50000500000E+01  0.51100000000E-03 0. -1.
         50    1    1    2    0    0  0.17132325901E-01  0.32809350734E-02  0.13990045542E-01  0.50000500000E+01  0.50000000000E+01 0. -1.
         50    1    1    2    0    0 -0.17132325901E-01 -0.32809350734E-02 -0.13990045542E-01  0.50000500000E+01  0.50000000000E+01 0.  0.
</event>
<event>
 4    1  0.4944208E-021  0.5000050E+01  0.7818608E-02  0.2136455E+00
        -11   -1    0    0    0    0  0.00000000000E+00  0.00000000000E+00  0.50000499739E+01  0.50000500000E+01  0.51100000000E-03 0.  1.
         11   -1    0    0    0    0 -0.00000000000E+00 -0.00000000000E+00 -0.50000499739E+01  0.50000500000E+01  0.51100000000E-03 0. -1.
         50    1    1    2    0    0 -0.21180213066E-01  0.30350852691E-02 -0.64953315442E-02  0.50000500000E+01  0.50000000000E+01 0. -1.
         50    1    1    2    0    0  0.21180213066E-01 -0.30350852691E-02  0.64953315442E-02  0.50000500000E+01  0.50000000000E+01 0.  1.
</event>
<event>
 4    1  0.4944208E-021  0.5000050E+01  0.7818608E-02  0.2136455E+00
        -11   -1    0    0    0    0  0.00000000000E+00  0.00000000000E+00  0.50000499739E+01  0.50000500000E+01  0.51100000000E-03 0.  1.
         11   -1    0    0    0    0 -0.00000000000E+00 -0.00000000000E+00 -0.50000499739E+01  0.50000500000E+01  0.51100000000E-03 0. -1.
         50    1    1    2    0    0 -0.71508427685E-02  0.20850318241E-01 -0.37592787827E-02  0.50000500000E+01  0.50000000000E+01 0. -1.
         50    1    1    2    0    0  0.71508427685E-02 -0.20850318241E-01  0.37592787827E-02  0.50000500000E+01  0.50000000000E+01 0.  1.
</event>
<event>
 4    1  0.4944208E-021  0.5000050E+01  0.7818608E-02  0.2136455E+00
        -11   -1    0    0    0    0  0.00000000000E+00  0.00000000000E+00  0.50000499739E+01  0.50000500000E+01  0.51100000000E-03 0. -1.
         11   -1    0    0    0    0 -0.00000000000E+00 -0.00000000000E+00 -0.50000499739E+01  0.50000500000E+01  0.51100000000E-03 0.  1.
         50    1    1    2    0    0 -0.61104530029E-02  0.13676450755E-01 -0.16601793844E-01  0.50000500000E+01  0.50000000000E+01 0.  1.
         50    1    1    2    0    0  0.61104530029E-02 -0.13676450755E-01  0.16601793844E-01  0.50000500000E+01  0.50000000000E+01 0.  0.
</event>
<event>
 4    1  0.4944208E-021  0.5000050E+01  0.7818608E-02  0.2136455E+00
        -11   -1    0    0    0    0  0.00000000000E+00  0.00000000000E+00  0.50000499739E+01  0.50000500000E+01  0.51100000000E-03 0. -1.
         11   -1    0    0    0    0 -0.00000000000E+00 -0.00000000000E+00 -0.50000499739E+01  0.50000500000E+01  0.51100000000E-03 0.  1.
         50    1    1    2    0    0  0.50418457294E-02  0.12334658804E-01  0.17956572163E-01  0.50000500000E+01  0.50000000000E+01 0. -1.
         50    1    1    2    0    0 -0.50418457294E-02 -0.12334658804E-01 -0.17956572163E-01  0.50000500000E+01  0.50000000000E+01 0.  0.
</event>
<event>
 4    1  0.4944208E-021  0.5000050E+01  0.7818608E-02  0.2136455E+00
        -11   -1    0    0    0    0  0.00000000000E+00  0.00000000000E+00  0.50000499739E+01  0.50000500000E+01  0.51100000000E-03 0. -1.
         11   -1    0    0    0    0 -0.00000000000E+00 -0.00000000000E+00 -0.50000499739E+01  0.50000500000E+01  0.51100000000E-03 0.  1.
         50    1    1    2    0    0  0.21288468837E-01 -0.61746418028E-02  0.29457415332E-02  0.50000500000E+01  0.50000000000E+01 0. -1.
         50    1    1    2    0    0 -0.21288468837E-01  0.61746418028E-02 -0.29457415332E-02  0.50000500000E+01  0.50000000000E+01 0.  1.
</event>
<event>
 4    1  0.4944208E-021  0.5000050E+01  0.7818608E-02  0.2136455E+00
        -11   -1    0    0    0    0  0.00000000000E+00  0.00000000000E+00  0.50000499739E+01  0.50000500000E+01  0.51100000000E-03 0.  1.
         11   -1    0    0    0    0 -0.00000000000E+00 -0.00000000000E+00 -0.50000499739E+01  0.50000500000E+01  0.51100000000E-03 0. -1.
         50    1    1    2    0    0 -0.20547459969E-02  0.16679282512E-01 -0.14750662825E-01  0.50000500000E+01  0.50000000000E+01 0. -1.
         50    1    1    2    0    0  0.20547459969E-02 -0.16679282512E-01  0.14750662825E-01  0.50000500000E+01  0.50000000000E+01 0.  1.
</event>
<event>
 4    1  0.4944208E-021  0.5000050E+01  0.7818608E-02  0.2136455E+00
        -11   -1    0    0    0    0  0.00000000000E+00  0.00000000000E+00  0.50000499739E+01  0.50000500000E+01  0.51100000000E-03 0.  1.
         11   -1    0    0    0    0 -0.00000000000E+00 -0.00000000000E+00 -0.50000499739E+01  0.50000500000E+01  0.51100000000E-03 0. -1.
         50    1    1    2    0    0  0.10004247950E-01 -0.69234981960E-02 -0.18761201872E-01  0.50000500000E+01  0.50000000000E+01 0. -1.
         50    1    1    2    0    0 -0.10004247950E-01  0.69234981960E-02  0.18761201872E-01  0.50000500000E+01  0.50000000000E+01 0.  1.
</event>
<event>
 4    1  0.4944208E-021  0.5000050E+01  0.7818608E-02  0.2136455E+00
        -11   -1    0    0    0    0  0.00000000000E+00  0.00000000000E+00  0.50000499739E+01  0.50000500000E+01  0.51100000000E-03 0. -1.
         11   -1    0    0    0    0 -0.00000000000E+00 -0.00000000000E+00 -0.50000499739E+01  0.50000500000E+01  0.51100000000E-03 0.  1.
         50    1    1    2    0    0  0.18502570103E-01 -0.31950858852E-02 -0.12142850809E-01  0.50000500000E+01  0.50000000000E+01 0.  1.
         50    1    1    2    0    0 -0.18502570103E-01  0.31950858852E-02  0.12142850809E-01  0.50000500000E+01  0.50000000000E+01 0. -1.
</event>
<event>
 4    1  0.4944208E-021  0.5000050E+01  0.7818608E-02  0.2136455E+00
        -11   -1    0    0    0    0  0.00000000000E+00  0.00000000000E+00  0.50000499739E+01  0.50000500000E+01  0.51100000000E-03 0. -1.
         11   -1    0    0    0    0 -0.00000000000E+00 -0.00000000000E+00 -0.50000499739E+01  0.50000500000E+01  0.51100000000E-03 0.  1.
         50    1    1    2    0    0 -0.54673692953E-02  0.21680732573E-01 -0.23708241045E-03  0.50000500000E+01  0.50000000000E+01 0.  1.
         50    1    1    2    0    0  0.54673692953E-02 -0.21680732573E-01  0.23708241045E-03  0.50000500000E+01  0.50000000000E+01 0. -1.
</event>
<event>
 4    1  0.4944208E-021  0.5000050E+01  0.7818608E-02  0.2136455E+00
        -11   -1    0    0    0    0  0.00000000000E+00  0.00000000000E+00  0.50000499739E+01  0.50000500000E+01  0.51100000000E-03 0. -1.
         11   -1    0    0    0    0 -0.00000000000E+00 -0.00000000000E+00 -0.50000499739E+01  0.50000500000E+01  0.51100000000E-03 0.  1.
         50    1    1    2    0    0 -0.18255558027E-01 -0.60409262663E-03  0.12898533762E-01  0.50000500000E+01  0.50000000000E+01 0. -1.
         50    1    1    2    0    0  0.18255558027E-01  0.60409262663E-03 -0.12898533762E-01  0.50000500000E+01  0.50000000000E+01 0.  1.
</event>
<event>
 4    1  0.4944208E-021  0.5000050E+01  0.7818608E-02  0.2136455E+00
        -11   -1    0    0    0    0  0.00000000000E+00  0.00000000000E+00  0.50000499739E+01  0.50000500000E+01  0.51100000000E-03 0. -1.
         11   -1    0    0    0    0 -0.00000000000E+00 -0.00000000000E+00 -0.50000499739E+01  0.50000500000E+01  0.51100000000E-03 0.  1.
         50    1    1    2    0    0  0.10485474015E-01 -0.18899766426E-01 -0.57320296336E-02  0.50000500000E+01  0.50000000000E+01 0.  1.
         50    1    1    2    0    0 -0.10485474015E-01  0.18899766426E-01  0.57320296336E-02  0.50000500000E+01  0.50000000000E+01 0. -1.
</event>
<event>
 4    1  0.4944208E-021  0.5000050E+01  0.7818608E-02  0.2136455E+00
        -11   -1    0    0    0    0  0.00000000000E+00  0.00000000000E+00  0.50000499739E+01  0.50000500000E+01  0.51100000000E-03 0.  1.
         11   -1    0    0    0    0 -0.00000000000E+00 -0.00000000000E+00 -0.50000499739E+01  0.50000500000E+01  0.51100000000E-03 0. -1.
         50    1    1    2    0    0  0.22137799735E-01 -0.73371733574E-03 -0.30630020833E-02  0.50000500000E+01  0.50000000000E+01 0.  1.
         50    1    1    2    0    0 -0.22137799735E-01  0.73371733574E-03  0.30630020833E-02  0.50000500000E+01  0.50000000000E+01 0.  0.
</event>
<event>
 4    1  0.4944208E-021  0.5000050E+01  0.7818608E-02  0.2136455E+00
        -11   -1    0    0    0    0  0.00000000000E+00  0.00000000000E+00  0.50000499739E+01  0.50000500000E+01  0.51100000000E-03 0.  1.
         11   -1    0    0    0    0 -0.00000000000E+00 -0.00000000000E+00 -0.50000499739E+01  0.50000500000E+01  0.51100000000E-03 0. -1.
         50    1    1    2    0    0  0.23409332050E-02  0.19699424575E-01 -0.10317713077E-01  0.50000500000E+01  0.50000000000E+01 0.  0.
         50    1    1    2    0    0 -0.23409332050E-02 -0.19699424575E-01  0.10317713077E-01  0.50000500000E+01  0.50000000000E+01 0.  0.
</event>
<event>
 4    1  0.4944208E-021  0.5000050E+01  0.7818608E-02  0.2136455E+00
        -11   -1    0    0    0    0  0.00000000000E+00  0.00000000000E+00  0.50000499739E+01  0.50000500000E+01  0.51100000000E-03 0.  1.
         11   -1    0    0    0    0 -0.00000000000E+00 -0.00000000000E+00 -0.50000499739E+01  0.50000500000E+01  0.51100000000E-03 0. -1.
         50    1    1    2    0    0  0.15765283765E-01  0.15485391997E-01 -0.34148151496E-02  0.50000500000E+01  0.50000000000E+01 0.  0.
         50    1    1    2    0    0 -0.15765283765E-01 -0.15485391997E-01  0.34148151496E-02  0.50000500000E+01  0.50000000000E+01 0. -1.
</event>
<event>
 4    1  0.4944208E-021  0.5000050E+01  0.7818608E-02  0.2136455E+00
        -11   -1    0    0    0    0  0.00000000000E+00  0.00000000000E+00  0.50000499739E+01  0.50000500000E+01  0.51100000000E-03 0. -1.
         11   -1    0    0    0    0 -0.00000000000E+00 -0.00000000000E+00 -0.50000499739E+01  0.50000500000E+01  0.51100000000E-03 0.  1.
         50    1    1    2    0    0 -0.68388605602E-02 -0.69902911217E-02  0.20108911365E-01  0.50000500000E+01  0.50000000000E+01 0.  0.
         50    1    1    2    0    0  0.68388605602E-02  0.69902911217E-02 -0.20108911365E-01  0.50000500000E+01  0.50000000000E+01 0.  0.
</event>
<event>
 4    1  0.4944208E-021  0.5000050E+01  0.7818608E-02  0.2136455E+00
        -11   -1    0    0    0    0  0.00000000000E+00  0.00000000000E+00  0.50000499739E+01  0.50000500000E+01  0.51100000000E-03 0. -1.
         11   -1    0    0    0    0 -0.00000000000E+00 -0.00000000000E+00 -0.50000499739E+01  0.50000500000E+01  0.51100000000E-03 0.  1.
         50    1    1    2    0    0  0.10458524773E-01  0.12371144109E-01 -0.15413518514E-01  0.50000500000E+01  0.50000000000E+01 0. -1.
         50    1    1    2    0    0 -0.10458524773E-01 -0.12371144109E-01  0.15413518514E-01  0.50000500000E+01  0.50000000000E+01 0. -1.
</event>
<event>
 4    1  0.4944208E-021  0.5000050E+01  0.7818608E-02  0.2136455E+00
        -11   -1    0    0    0    0  0.00000000000E+00  0.00000000000E+00  0.50000499739E+01  0.50000500000E+01  0.51100000000E-03 0.  1.
         11   -1    0    0    0    0 -0.00000000000E+00 -0.00000000000E+00 -0.50000499739E+01  0.50000500000E+01  0.51100000000E-03 0. -1.
         50    1    1    2    0    0  0.11629295035E-01  0.80882697327E-02 -0.17301499638E-01  0.50000500000E+01  0.50000000000E+01 0. -1.
         50    1    1    2    0    0 -0.11629295035E-01 -0.80882697327E-02  0.17301499638E-01  0.50000500000E+01  0.50000000000E+01 0. -1.
</event>
<event>
 4    1  0.4944208E-021  0.5000050E+01  0.7818608E-02  0.2136455E+00
        -11   -1    0    0    0    0  0.00000000000E+00  0.00000000000E+00  0.50000499739E+01  0.50000500000E+01  0.51100000000E-03 0.  1.
         11   -1    0    0    0    0 -0.00000000000E+00 -0.00000000000E+00 -0.50000499739E+01  0.50000500000E+01  0.51100000000E-03 0. -1.
         50    1    1    2    0    0  0.78616686748E-02 -0.89634529871E-04  0.20932955627E-01  0.50000500000E+01  0.50000000000E+01 0.  0.
         50    1    1    2    0    0 -0.78616686748E-02  0.89634529871E-04 -0.20932955627E-01  0.50000500000E+01  0.50000000000E+01 0. -1.
</event>
<event>
 4    1  0.4944208E-021  0.5000050E+01  0.7818608E-02  0.2136455E+00
        -11   -1    0    0    0    0  0.00000000000E+00  0.00000000000E+00  0.50000499739E+01  0.50000500000E+01  0.51100000000E-03 0. -1.
         11   -1    0    0    0    0 -0.00000000000E+00 -0.00000000000E+00 -0.50000499739E+01  0.50000500000E+01  0.51100000000E-03 0.  1.
         50    1    1    2    0    0 -0.17284231074E-01  0.32907692096E-02  0.13799590364E-01  0.50000500000E+01  0.50000000000E+01 0.  0.
         50    1    1    2    0    0  0.17284231074E-01 -0.32907692096E-02 -0.13799590364E-01  0.50000500000E+01  0.50000000000E+01 0.  0.
</event>
<event>
 4    1  0.4944208E-021  0.5000050E+01  0.7818608E-02  0.2136455E+00
        -11   -1    0    0    0    0  0.00000000000E+00  0.00000000000E+00  0.50000499739E+01  0.50000500000E+01  0.51100000000E-03 0.  1.
         11   -1    0    0    0    0 -0.00000000000E+00 -0.00000000000E+00 -0.50000499739E+01  0.50000500000E+01  0.51100000000E-03 0. -1.
         50    1    1    2    0    0  0.11633067946E-01 -0.12750919749E-01  0.14215775594E-01  0.50000500000E+01  0.50000000000E+01 0.  0.
         50    1    1    2    0    0 -0.11633067946E-01  0.12750919749E-01 -0.14215775594E-01  0.50000500000E+01  0.50000000000E+01 0.  0.
</event>
<event>
 4    1  0.4944208E-021  0.5000050E+01  0.7818608E-02  0.2136455E+00
        -11   -1    0    0    0    0  0.00000000000E+00  0.00000000000E+00  0.50000499739E+01  0.50000500000E+01  0.51100000000E-03 0. -1.
         11   -1    0    0    0    0 -0.00000000000E+00 -0.00000000000E+00 -0.50000499739E+01  0.50000500000E+01  0.51100000000E-03 0.  1.
         50    1    1    2    0    0  0.56905355092E-02 -0.50211824251E-02  0.21033497871E-01  0.50000500000E+01  0.50000000000E+01 0. -1.
         50    1    1    2    0    0 -0.56905355092E-02  0.50211824251E-02 -0.21033497871E-01  0.50000500000E+01  0.50000000000E+01 0.  0.
</event>
<event>
 4    1  0.4944208E-021  0.5000050E+01  0.7818608E-02  0.2136455E+00
        -11   -1    0    0    0    0  0.00000000000E+00  0.00000000000E+00  0.50000499739E+01  0.50000500000E+01  0.51100000000E-03 0. -1.
         11   -1    0    0    0    0 -0.00000000000E+00 -0.00000000000E+00 -0.50000499739E+01  0.50000500000E+01  0.51100000000E-03 0.  1.
         50    1    1    2    0    0 -0.20186963119E-01 -0.65181677691E-02  0.70712452204E-02  0.50000500000E+01  0.50000000000E+01 0. -1.
         50    1    1    2    0    0  0.20186963119E-01  0.65181677691E-02 -0.70712452204E-02  0.50000500000E+01  0.50000000000E+01 0.  1.
</event>
<event>
 4    1  0.4944208E-021  0.5000050E+01  0.7818608E-02  0.2136455E+00
        -11   -1    0    0    0    0  0.00000000000E+00  0.00000000000E+00  0.50000499739E+01  0.50000500000E+01  0.51100000000E-03 0.  1.
         11   -1    0    0    0    0 -0.00000000000E+00 -0.00000000000E+00 -0.50000499739E+01  0.50000500000E+01  0.51100000000E-03 0. -1.
         50    1    1    2    0    0  0.35598772829E-02 -0.21814339650E-01 -0.33859059901E-02  0.50000500000E+01  0.50000000000E+01 0. -1.
         50    1    1    2    0    0 -0.35598772829E-02  0.21814339650E-01  0.33859059901E-02  0.50000500000E+01  0.50000000000E+01 0.  1.
</event>
<event>
 4    1  0.4944208E-021  0.5000050E+01  0.7818608E-02  0.2136455E+00
        -11   -1    0    0    0    0  0.00000000000E+00  0.00000000000E+00  0.50000499739E+01  0.50000500000E+01  0.51100000000E-03 0. -1.
         11   -1    0    0    0    0 -0.00000000000E+00 -0.00000000000E+00 -0.50000499739E+01  0.50000500000E+01  0.51100000000E-03 0.  1.
         50    1    1    2    0    0  0.87869503793E-02 -0.19893092908E-01 -0.52016206682E-02  0.50000500000E+01  0.50000000000E+01 0.  1.
         50    1    1    2    0    0 -0.87869503793E-02  0.19893092908E-01  0.52016206682E-02  0.50000500000E+01  0.50000000000E+01 0. -1.
</event>
<event>
 4    1  0.4944208E-021  0.5000050E+01  0.7818608E-02  0.2136455E+00
        -11   -1    0    0    0    0  0.00000000000E+00  0.00000000000E+00  0.50000499739E+01  0.50000500000E+01  0.51100000000E-03 0.  1.
         11   -1    0    0    0    0 -0.00000000000E+00 -0.00000000000E+00 -0.50000499739E+01  0.50000500000E+01  0.51100000000E-03 0. -1.
         50    1    1    2    0    0  0.18930227049E-01 -0.48749664975E-02 -0.10857426284E-01  0.50000500000E+01  0.50000000000E+01 0. -1.
         50    1    1    2    0    0 -0.18930227049E-01  0.48749664975E-02  0.10857426284E-01  0.50000500000E+01  0.50000000000E+01 0.  1.
</event>
<event>
 4    1  0.4944208E-021  0.5000050E+01  0.7818608E-02  0.2136455E+00
        -11   -1    0    0    0    0  0.00000000000E+00  0.00000000000E+00  0.50000499739E+01  0.50000500000E+01  0.51100000000E-03 0.  1.
         11   -1    0    0    0    0 -0.00000000000E+00 -0.00000000000E+00 -0.50000499739E+01  0.50000500000E+01  0.51100000000E-03 0. -1.
         50    1    1    2    0    0 -0.66885067867E-02  0.16087761106E-01 -0.14016073614E-01  0.50000500000E+01  0.50000000000E+01 0.  0.
         50    1    1    2    0    0  0.66885067867E-02 -0.16087761106E-01  0.14016073614E-01  0.50000500000E+01  0.50000000000E+01 0.  0.
</event>
<event>
 4    1  0.4944208E-021  0.5000050E+01  0.7818608E-02  0.2136455E+00
        -11   -1    0    0    0    0  0.00000000000E+00  0.00000000000E+00  0.50000499739E+01  0.50000500000E+01  0.51100000000E-03 0.  1.
         11   -1    0    0    0    0 -0.00000000000E+00 -0.00000000000E+00 -0.50000499739E+01  0.50000500000E+01  0.51100000000E-03 0. -1.
         50    1    1    2    0    0  0.13246179996E-02  0.22273495974E-01 -0.14626223882E-02  0.50000500000E+01  0.50000000000E+01 0. -1.
         50    1    1    2    0    0 -0.13246179996E-02 -0.22273495974E-01  0.14626223882E-02  0.50000500000E+01  0.50000000000E+01 0.  1.
</event>
<event>
 4    1  0.4944208E-021  0.5000050E+01  0.7818608E-02  0.2136455E+00
        -11   -1    0    0    0    0  0.00000000000E+00  0.00000000000E+00  0.50000499739E+01  0.50000500000E+01  0.51100000000E-03 0.  1.
         11   -1    0    0    0    0 -0.00000000000E+00 -0.00000000000E+00 -0.50000499739E+01  0.50000500000E+01  0.51100000000E-03 0. -1.
         50    1    1    2    0    0 -0.12735732488E-01 -0.98764571782E-02 -0.15500297145E-01  0.50000500000E+01  0.50000000000E+01 0. -1.
         50    1    1    2    0    0  0.12735732488E-01  0.98764571782E-02  0.15500297145E-01  0.50000500000E+01  0.50000000000E+01 0.  1.
</event>
<event>
 4    1  0.4944208E-021  0.5000050E+01  0.7818608E-02  0.2136455E+00
        -11   -1    0    0    0    0  0.00000000000E+00  0.00000000000E+00  0.50000499739E+01  0.50000500000E+01  0.51100000000E-03 0.  1.
         11   -1    0    0    0    0 -0.00000000000E+00 -0.00000000000E+00 -0.50000499739E+01  0.50000500000E+01  0.51100000000E-03 0. -1.
         50    1    1    2    0    0 -0.22252911465E-01 -0.16393364737E-02  0.14570543128E-02  0.50000500000E+01  0.50000000000E+01 0.  1.
         50    1    1    2    0    0  0.22252911465E-01  0.16393364737E-02 -0.14570543128E-02  0.50000500000E+01  0.50000000000E+01 0.  0.
</event>
<event>
 4    1  0.4944208E-021  0.5000050E+01  0.7818608E-02  0.2136455E+00
        -11   -1    0    0    0    0  0.00000000000E+00  0.00000000000E+00  0.50000499739E+01  0.50000500000E+01  0.51100000000E-03 0. -1.
         11   -1    0    0    0    0 -0.00000000000E+00 -0.00000000000E+00 -0.50000499739E+01  0.50000500000E+01  0.51100000000E-03 0.  1.
         50    1    1    2    0    0 -0.22518233650E-02 -0.61345576789E-02 -0.21384550349E-01  0.50000500000E+01  0.50000000000E+01 0.  0.
         50    1    1    2    0    0  0.22518233650E-02  0.61345576789E-02  0.21384550349E-01  0.50000500000E+01  0.50000000000E+01 0. -1.
</event>
<event>
 4    1  0.4944208E-021  0.5000050E+01  0.7818608E-02  0.2136455E+00
        -11   -1    0    0    0    0  0.00000000000E+00  0.00000000000E+00  0.50000499739E+01  0.50000500000E+01  0.51100000000E-03 0.  1.
         11   -1    0    0    0    0 -0.00000000000E+00 -0.00000000000E+00 -0.50000499739E+01  0.50000500000E+01  0.51100000000E-03 0. -1.
         50    1    1    2    0    0  0.14362838494E-01  0.65121117971E-02  0.15852563525E-01  0.50000500000E+01  0.50000000000E+01 0.  0.
         50    1    1    2    0    0 -0.14362838494E-01 -0.65121117971E-02 -0.15852563525E-01  0.50000500000E+01  0.50000000000E+01 0. -1.
</event>
<event>
 4    1  0.4944208E-021  0.5000050E+01  0.7818608E-02  0.2136455E+00
        -11   -1    0    0    0    0  0.00000000000E+00  0.00000000000E+00  0.50000499739E+01  0.50000500000E+01  0.51100000000E-03 0. -1.
         11   -1    0    0    0    0 -0.00000000000E+00 -0.00000000000E+00 -0.50000499739E+01  0.50000500000E+01  0.51100000000E-03 0.  1.
         50    1    1    2    0    0  0.42736990305E-02 -0.21468966861E-01 -0.45630536378E-02  0.50000500000E+01  0.50000000000E+01 0.  0.
         50    1    1    2    0    0 -0.42736990305E-02  0.21468966861E-01  0.45630536378E-02  0.50000500000E+01  0.50000000000E+01 0.  0.
</event>
<event>
 4    1  0.4944208E-021  0.5000050E+01  0.7818608E-02  0.2136455E+00
        -11   -1    0    0    0    0  0.00000000000E+00  0.00000000000E+00  0.50000499739E+01  0.50000500000E+01  0.51100000000E-03 0.  1.
         11   -1    0    0    0    0 -0.00000000000E+00 -0.00000000000E+00 -0.50000499739E+01  0.50000500000E+01  0.51100000000E-03 0. -1.
         50    1    1    2    0    0 -0.61645566659E-02  0.18228598941E-01  0.11389421485E-01  0.50000500000E+01  0.50000000000E+01 0. -1.
         50    1    1    2    0    0  0.61645566659E-02 -0.18228598941E-01 -0.11389421485E-01  0.50000500000E+01  0.50000000000E+01 0. -1.
</event>
<event>
 4    1  0.4944208E-021  0.5000050E+01  0.7818608E-02  0.2136455E+00
        -11   -1    0    0    0    0  0.00000000000E+00  0.00000000000E+00  0.50000499739E+01  0.50000500000E+01  0.51100000000E-03 0.  1.
         11   -1    0    0    0    0 -0.00000000000E+00 -0.00000000000E+00 -0.50000499739E+01  0.50000500000E+01  0.51100000000E-03 0. -1.
         50    1    1    2    0    0  0.18407961269E-01  0.12593129710E-01 -0.16007954382E-02  0.50000500000E+01  0.50000000000E+01 0.  1.
         50    1    1    2    0    0 -0.18407961269E-01 -0.12593129710E-01  0.16007954382E-02  0.50000500000E+01  0.50000000000E+01 0.  0.
</event>
<event>
 4    1  0.4944208E-021  0.5000050E+01  0.7818608E-02  0.2136455E+00
        -11   -1    0    0    0    0  0.00000000000E+00  0.00000000000E+00  0.50000499739E+01  0.50000500000E+01  0.51100000000E-03 0.  1.
         11   -1    0    0    0    0 -0.00000000000E+00 -0.00000000000E+00 -0.50000499739E+01  0.50000500000E+01  0.51100000000E-03 0. -1.
         50    1    1    2    0    0  0.16561537675E-01 -0.61624931149E-02 -0.13701884850E-01  0.50000500000E+01  0.50000000000E+01 0. -1.
         50    1    1    2    0    0 -0.16561537675E-01  0.61624931149E-02  0.13701884850E-01  0.50000500000E+01  0.50000000000E+01 0.  1.
</event>
<event>
 4    1  0.4944208E-021  0.5000050E+01  0.7818608E-02  0.2136455E+00
        -11   -1    0    0    0    0  0.00000000000E+00  0.00000000000E+00  0.50000499739E+01  0.50000500000E+01  0.51100000000E-03 0. -1.
         11   -1    0    0    0    0 -0.00000000000E+00 -0.00000000000E+00 -0.50000499739E+01  0.50000500000E+01  0.51100000000E-03 0.  1.
         50    1    1    2    0    0  0.20991285951E-01  0.21074685359E-02 -0.74112745519E-02  0.50000500000E+01  0.50000000000E+01 0.  0.
         50    1    1    2    0    0 -0.20991285951E-01 -0.21074685359E-02  0.74112745519E-02  0.50000500000E+01  0.50000000000E+01 0.  1.
</event>
<event>
 4    1  0.4944208E-021  0.5000050E+01  0.7818608E-02  0.2136455E+00
        -11   -1    0    0    0    0  0.00000000000E+00  0.00000000000E+00  0.50000499739E+01  0.50000500000E+01  0.51100000000E-03 0.  1.
         11   -1    0    0    0    0 -0.00000000000E+00 -0.00000000000E+00 -0.50000499739E+01  0.50000500000E+01  0.51100000000E-03 0. -1.
         50    1    1    2    0    0  0.42641686739E-02 -0.13073419580E-01 -0.17632500277E-01  0.50000500000E+01  0.50000000000E+01 0.  0.
         50    1    1    2    0    0 -0.42641686739E-02  0.13073419580E-01  0.17632500277E-01  0.50000500000E+01  0.50000000000E+01 0.  1.
</event>
<event>
 4    1  0.4944208E-021  0.5000050E+01  0.7818608E-02  0.2136455E+00
        -11   -1    0    0    0    0  0.00000000000E+00  0.00000000000E+00  0.50000499739E+01  0.50000500000E+01  0.51100000000E-03 0. -1.
         11   -1    0    0    0    0 -0.00000000000E+00 -0.00000000000E+00 -0.50000499739E+01  0.50000500000E+01  0.51100000000E-03 0.  1.
         50    1    1    2    0    0 -0.96527242050E-02  0.10443128525E-01 -0.17255969461E-01  0.50000500000E+01  0.50000000000E+01 0. -1.
         50    1    1    2    0    0  0.96527242050E-02 -0.10443128525E-01  0.17255969461E-01  0.50000500000E+01  0.50000000000E+01 0. -1.
</event>
<event>
 4    1  0.4944208E-021  0.5000050E+01  0.7818608E-02  0.2136455E+00
        -11   -1    0    0    0    0  0.00000000000E+00  0.00000000000E+00  0.50000499739E+01  0.50000500000E+01  0.51100000000E-03 0.  1.
         11   -1    0    0    0    0 -0.00000000000E+00 -0.00000000000E+00 -0.50000499739E+01  0.50000500000E+01  0.51100000000E-03 0. -1.
         50    1    1    2    0    0  0.15148531549E-01 -0.56142753160E-02 -0.15459767288E-01  0.50000500000E+01  0.50000000000E+01 0.  0.
         50    1    1    2    0    0 -0.15148531549E-01  0.56142753160E-02  0.15459767288E-01  0.50000500000E+01  0.50000000000E+01 0. -1.
</event>
<event>
 4    1  0.4944208E-021  0.5000050E+01  0.7818608E-02  0.2136455E+00
        -11   -1    0    0    0    0  0.00000000000E+00  0.00000000000E+00  0.50000499739E+01  0.50000500000E+01  0.51100000000E-03 0.  1.
         11   -1    0    0    0    0 -0.00000000000E+00 -0.00000000000E+00 -0.50000499739E+01  0.50000500000E+01  0.51100000000E-03 0. -1.
         50    1    1    2    0    0 -0.95446413457E-02 -0.20220905070E-01  0.13160443087E-03  0.50000500000E+01  0.50000000000E+01 0. -1.
         50    1    1    2    0    0  0.95446413457E-02  0.20220905070E-01 -0.13160443087E-03  0.50000500000E+01  0.50000000000E+01 0.  0.
</event>
<event>
 4    1  0.4944208E-021  0.5000050E+01  0.7818608E-02  0.2136455E+00
        -11   -1    0    0    0    0  0.00000000000E+00  0.00000000000E+00  0.50000499739E+01  0.50000500000E+01  0.51100000000E-03 0.  1.
         11   -1    0    0    0    0 -0.00000000000E+00 -0.00000000000E+00 -0.50000499739E+01  0.50000500000E+01  0.51100000000E-03 0. -1.
         50    1    1    2    0    0 -0.19022315794E-01  0.70755622273E-02  0.93856497383E-02  0.50000500000E+01  0.50000000000E+01 0. -1.
         50    1    1    2    0    0  0.19022315794E-01 -0.70755622273E-02 -0.93856497383E-02  0.50000500000E+01  0.50000000000E+01 0. -1.
</event>
<event>
 4    1  0.4944208E-021  0.5000050E+01  0.7818608E-02  0.2136455E+00
        -11   -1    0    0    0    0  0.00000000000E+00  0.00000000000E+00  0.50000499739E+01  0.50000500000E+01  0.51100000000E-03 0.  1.
         11   -1    0    0    0    0 -0.00000000000E+00 -0.00000000000E+00 -0.50000499739E+01  0.50000500000E+01  0.51100000000E-03 0. -1.
         50    1    1    2    0    0  0.49048150164E-02 -0.14282196151E-01 -0.16491335991E-01  0.50000500000E+01  0.50000000000E+01 0. -1.
         50    1    1    2    0    0 -0.49048150164E-02  0.14282196151E-01  0.16491335991E-01  0.50000500000E+01  0.50000000000E+01 0.  0.
</event>
<event>
 4    1  0.4944208E-021  0.5000050E+01  0.7818608E-02  0.2136455E+00
        -11   -1    0    0    0    0  0.00000000000E+00  0.00000000000E+00  0.50000499739E+01  0.50000500000E+01  0.51100000000E-03 0.  1.
         11   -1    0    0    0    0 -0.00000000000E+00 -0.00000000000E+00 -0.50000499739E+01  0.50000500000E+01  0.51100000000E-03 0. -1.
         50    1    1    2    0    0 -0.15760239782E-01  0.15503788018E-01  0.33540869253E-02  0.50000500000E+01  0.50000000000E+01 0.  1.
         50    1    1    2    0    0  0.15760239782E-01 -0.15503788018E-01 -0.33540869253E-02  0.50000500000E+01  0.50000000000E+01 0. -1.
</event>
<event>
 4    1  0.4944208E-021  0.5000050E+01  0.7818608E-02  0.2136455E+00
        -11   -1    0    0    0    0  0.00000000000E+00  0.00000000000E+00  0.50000499739E+01  0.50000500000E+01  0.51100000000E-03 0.  1.
         11   -1    0    0    0    0 -0.00000000000E+00 -0.00000000000E+00 -0.50000499739E+01  0.50000500000E+01  0.51100000000E-03 0. -1.
         50    1    1    2    0    0 -0.20912247732E-01 -0.41312984819E-02  0.67537225034E-02  0.50000500000E+01  0.50000000000E+01 0.  0.
         50    1    1    2    0    0  0.20912247732E-01  0.41312984819E-02 -0.67537225034E-02  0.50000500000E+01  0.50000000000E+01 0.  1.
</event>
<event>
 4    1  0.4944208E-021  0.5000050E+01  0.7818608E-02  0.2136455E+00
        -11   -1    0    0    0    0  0.00000000000E+00  0.00000000000E+00  0.50000499739E+01  0.50000500000E+01  0.51100000000E-03 0. -1.
         11   -1    0    0    0    0 -0.00000000000E+00 -0.00000000000E+00 -0.50000499739E+01  0.50000500000E+01  0.51100000000E-03 0.  1.
         50    1    1    2    0    0 -0.21670064428E-02 -0.21524648557E-01  0.56565084265E-02  0.50000500000E+01  0.50000000000E+01 0.  0.
         50    1    1    2    0    0  0.21670064428E-02  0.21524648557E-01 -0.56565084265E-02  0.50000500000E+01  0.50000000000E+01 0. -1.
</event>
<event>
 4    1  0.4944208E-021  0.5000050E+01  0.7818608E-02  0.2136455E+00
        -11   -1    0    0    0    0  0.00000000000E+00  0.00000000000E+00  0.50000499739E+01  0.50000500000E+01  0.51100000000E-03 0. -1.
         11   -1    0    0    0    0 -0.00000000000E+00 -0.00000000000E+00 -0.50000499739E+01  0.50000500000E+01  0.51100000000E-03 0.  1.
         50    1    1    2    0    0  0.12076157991E-01  0.45849108591E-02  0.18252328635E-01  0.50000500000E+01  0.50000000000E+01 0.  0.
         50    1    1    2    0    0 -0.12076157991E-01 -0.45849108591E-02 -0.18252328635E-01  0.50000500000E+01  0.50000000000E+01 0.  1.
</event>
<event>
 4    1  0.4944208E-021  0.5000050E+01  0.7818608E-02  0.2136455E+00
        -11   -1    0    0    0    0  0.00000000000E+00  0.00000000000E+00  0.50000499739E+01  0.50000500000E+01  0.51100000000E-03 0.  1.
         11   -1    0    0    0    0 -0.00000000000E+00 -0.00000000000E+00 -0.50000499739E+01  0.50000500000E+01  0.51100000000E-03 0. -1.
         50    1    1    2    0    0 -0.49981598033E-02  0.21219962060E-01 -0.49733397966E-02  0.50000500000E+01  0.50000000000E+01 0.  0.
         50    1    1    2    0    0  0.49981598033E-02 -0.21219962060E-01  0.49733397966E-02  0.50000500000E+01  0.50000000000E+01 0.  1.
</event>
<event>
 4    1  0.4944208E-021  0.5000050E+01  0.7818608E-02  0.2136455E+00
        -11   -1    0    0    0    0  0.00000000000E+00  0.00000000000E+00  0.50000499739E+01  0.50000500000E+01  0.51100000000E-03 0.  1.
         11   -1    0    0    0    0 -0.00000000000E+00 -0.00000000000E+00 -0.50000499739E+01  0.50000500000E+01  0.51100000000E-03 0. -1.
         50    1    1    2    0    0 -0.47824985471E-02 -0.13323239736E-01 -0.17309578001E-01  0.50000500000E+01  0.50000000000E+01 0.  0.
         50    1    1    2    0    0  0.47824985471E-02  0.13323239736E-01  0.17309578001E-01  0.50000500000E+01  0.50000000000E+01 0.  0.
</event>
<event>
 4    1  0.4944208E-021  0.5000050E+01  0.7818608E-02  0.2136455E+00
        -11   -1    0    0    0    0  0.00000000000E+00  0.00000000000E+00  0.50000499739E+01  0.50000500000E+01  0.51100000000E-03 0. -1.
         11   -1    0    0    0    0 -0.00000000000E+00 -0.00000000000E+00 -0.50000499739E+01  0.50000500000E+01  0.51100000000E-03 0.  1.
         50    1    1    2    0    0  0.17941350669E-01 -0.75441706889E-02 -0.11008902070E-01  0.50000500000E+01  0.50000000000E+01 0.  0.
         50    1    1    2    0    0 -0.17941350669E-01  0.75441706889E-02  0.11008902070E-01  0.50000500000E+01  0.50000000000E+01 0.  0.
</event>
<event>
 4    1  0.4944208E-021  0.5000050E+01  0.7818608E-02  0.2136455E+00
        -11   -1    0    0    0    0  0.00000000000E+00  0.00000000000E+00  0.50000499739E+01  0.50000500000E+01  0.51100000000E-03 0.  1.
         11   -1    0    0    0    0 -0.00000000000E+00 -0.00000000000E+00 -0.50000499739E+01  0.50000500000E+01  0.51100000000E-03 0. -1.
         50    1    1    2    0    0 -0.18312663964E-01 -0.48009863045E-02 -0.11899553313E-01  0.50000500000E+01  0.50000000000E+01 0. -1.
         50    1    1    2    0    0  0.18312663964E-01  0.48009863045E-02  0.11899553313E-01  0.50000500000E+01  0.50000000000E+01 0.  1.
</event>
<event>
 4    1  0.4944208E-021  0.5000050E+01  0.7818608E-02  0.2136455E+00
        -11   -1    0    0    0    0  0.00000000000E+00  0.00000000000E+00  0.50000499739E+01  0.50000500000E+01  0.51100000000E-03 0.  1.
         11   -1    0    0    0    0 -0.00000000000E+00 -0.00000000000E+00 -0.50000499739E+01  0.50000500000E+01  0.51100000000E-03 0. -1.
         50    1    1    2    0    0  0.58751104424E-02  0.11711681587E-02 -0.21543303888E-01  0.50000500000E+01  0.50000000000E+01 0. -1.
         50    1    1    2    0    0 -0.58751104424E-02 -0.11711681587E-02  0.21543303888E-01  0.50000500000E+01  0.50000000000E+01 0.  0.
</event>
<event>
 4    1  0.4944208E-021  0.5000050E+01  0.7818608E-02  0.2136455E+00
        -11   -1    0    0    0    0  0.00000000000E+00  0.00000000000E+00  0.50000499739E+01  0.50000500000E+01  0.51100000000E-03 0. -1.
         11   -1    0    0    0    0 -0.00000000000E+00 -0.00000000000E+00 -0.50000499739E+01  0.50000500000E+01  0.51100000000E-03 0.  1.
         50    1    1    2    0    0 -0.16225655489E-02  0.20640934361E-01  0.84452122369E-02  0.50000500000E+01  0.50000000000E+01 0.  1.
         50    1    1    2    0    0  0.16225655489E-02 -0.20640934361E-01 -0.84452122369E-02  0.50000500000E+01  0.50000000000E+01 0. -1.
</event>
<event>
 4    1  0.4944208E-021  0.5000050E+01  0.7818608E-02  0.2136455E+00
        -11   -1    0    0    0    0  0.00000000000E+00  0.00000000000E+00  0.50000499739E+01  0.50000500000E+01  0.51100000000E-03 0.  1.
         11   -1    0    0    0    0 -0.00000000000E+00 -0.00000000000E+00 -0.50000499739E+01  0.50000500000E+01  0.51100000000E-03 0. -1.
         50    1    1    2    0    0  0.47105269140E-02 -0.13998821683E-01 -0.16788282452E-01  0.50000500000E+01  0.50000000000E+01 0. -1.
         50    1    1    2    0    0 -0.47105269140E-02  0.13998821683E-01  0.16788282452E-01  0.50000500000E+01  0.50000000000E+01 0.  1.
</event>
<event>
 4    1  0.4944208E-021  0.5000050E+01  0.7818608E-02  0.2136455E+00
        -11   -1    0    0    0    0  0.00000000000E+00  0.00000000000E+00  0.50000499739E+01  0.50000500000E+01  0.51100000000E-03 0. -1.
         11   -1    0    0    0    0 -0.00000000000E+00 -0.00000000000E+00 -0.50000499739E+01  0.50000500000E+01  0.51100000000E-03 0.  1.
         50    1    1    2    0    0 -0.60074733791E-02 -0.13841925177E-01 -0.16501935371E-01  0.50000500000E+01  0.50000000000E+01 0. -1.
         50    1    1    2    0    0  0.60074733791E-02  0.13841925177E-01  0.16501935371E-01  0.50000500000E+01  0.50000000000E+01 0. -1.
</event>
<event>
 4    1  0.4944208E-021  0.5000050E+01  0.7818608E-02  0.2136455E+00
        -11   -1    0    0    0    0  0.00000000000E+00  0.00000000000E+00  0.50000499739E+01  0.50000500000E+01  0.51100000000E-03 0. -1.
         11   -1    0    0    0    0 -0.00000000000E+00 -0.00000000000E+00 -0.50000499739E+01  0.50000500000E+01  0.51100000000E-03 0.  1.
         50    1    1    2    0    0 -0.15545332386E-01 -0.86408714664E-02 -0.13552877234E-01  0.50000500000E+01  0.50000000000E+01 0.  0.
         50    1    1    2    0    0  0.15545332386E-01  0.86408714664E-02  0.13552877234E-01  0.50000500000E+01  0.50000000000E+01 0.  1.
</event>
<event>
 4    1  0.4944208E-021  0.5000050E+01  0.7818608E-02  0.2136455E+00
        -11   -1    0    0    0    0  0.00000000000E+00  0.00000000000E+00  0.50000499739E+01  0.50000500000E+01  0.51100000000E-03 0. -1.
         11   -1    0    0    0    0 -0.00000000000E+00 -0.00000000000E+00 -0.50000499739E+01  0.50000500000E+01  0.51100000000E-03 0.  1.
         50    1    1    2    0    0  0.20374929437E-01  0.82717625511E-02  0.40549592750E-02  0.50000500000E+01  0.50000000000E+01 0. -1.
         50    1    1    2    0    0 -0.20374929437E-01 -0.82717625511E-02 -0.40549592750E-02  0.50000500000E+01  0.50000000000E+01 0.  0.
</event>
<event>
 4    1  0.4944208E-021  0.5000050E+01  0.7818608E-02  0.2136455E+00
        -11   -1    0    0    0    0  0.00000000000E+00  0.00000000000E+00  0.50000499739E+01  0.50000500000E+01  0.51100000000E-03 0. -1.
         11   -1    0    0    0    0 -0.00000000000E+00 -0.00000000000E+00 -0.50000499739E+01  0.50000500000E+01  0.51100000000E-03 0.  1.
         50    1    1    2    0    0  0.46513277571E-03 -0.13478151924E-01 -0.17836075022E-01  0.50000500000E+01  0.50000000000E+01 0.  1.
         50    1    1    2    0    0 -0.46513277571E-03  0.13478151924E-01  0.17836075022E-01  0.50000500000E+01  0.50000000000E+01 0. -1.
</event>
<event>
 4    1  0.4944208E-021  0.5000050E+01  0.7818608E-02  0.2136455E+00
        -11   -1    0    0    0    0  0.00000000000E+00  0.00000000000E+00  0.50000499739E+01  0.50000500000E+01  0.51100000000E-03 0.  1.
         11   -1    0    0    0    0 -0.00000000000E+00 -0.00000000000E+00 -0.50000499739E+01  0.50000500000E+01  0.51100000000E-03 0. -1.
         50    1    1    2    0    0 -0.18572389253E-01 -0.12350620975E-01 -0.15909176528E-02  0.50000500000E+01  0.50000000000E+01 0. -1.
         50    1    1    2    0    0  0.18572389253E-01  0.12350620975E-01  0.15909176528E-02  0.50000500000E+01  0.50000000000E+01 0.  1.
</event>
<event>
 4    1  0.4944208E-021  0.5000050E+01  0.7818608E-02  0.2136455E+00
        -11   -1    0    0    0    0  0.00000000000E+00  0.00000000000E+00  0.50000499739E+01  0.50000500000E+01  0.51100000000E-03 0. -1.
         11   -1    0    0    0    0 -0.00000000000E+00 -0.00000000000E+00 -0.50000499739E+01  0.50000500000E+01  0.51100000000E-03 0.  1.
         50    1    1    2    0    0 -0.15468396383E-01 -0.89077535108E-02 -0.13467855833E-01  0.50000500000E+01  0.50000000000E+01 0.  1.
         50    1    1    2    0    0  0.15468396383E-01  0.89077535108E-02  0.13467855833E-01  0.50000500000E+01  0.50000000000E+01 0. -1.
</event>
<event>
 4    1  0.4944208E-021  0.5000050E+01  0.7818608E-02  0.2136455E+00
        -11   -1    0    0    0    0  0.00000000000E+00  0.00000000000E+00  0.50000499739E+01  0.50000500000E+01  0.51100000000E-03 0.  1.
         11   -1    0    0    0    0 -0.00000000000E+00 -0.00000000000E+00 -0.50000499739E+01  0.50000500000E+01  0.51100000000E-03 0. -1.
         50    1    1    2    0    0  0.13884098405E-01 -0.63807352074E-02 -0.16325456493E-01  0.50000500000E+01  0.50000000000E+01 0. -1.
         50    1    1    2    0    0 -0.13884098405E-01  0.63807352074E-02  0.16325456493E-01  0.50000500000E+01  0.50000000000E+01 0. -1.
</event>
<event>
 4    1  0.4944208E-021  0.5000050E+01  0.7818608E-02  0.2136455E+00
        -11   -1    0    0    0    0  0.00000000000E+00  0.00000000000E+00  0.50000499739E+01  0.50000500000E+01  0.51100000000E-03 0.  1.
         11   -1    0    0    0    0 -0.00000000000E+00 -0.00000000000E+00 -0.50000499739E+01  0.50000500000E+01  0.51100000000E-03 0. -1.
         50    1    1    2    0    0 -0.11735261182E-01 -0.16696829743E-01  0.91379440537E-02  0.50000500000E+01  0.50000000000E+01 0.  1.
         50    1    1    2    0    0  0.11735261182E-01  0.16696829743E-01 -0.91379440537E-02  0.50000500000E+01  0.50000000000E+01 0. -1.
</event>
<event>
 4    1  0.4944208E-021  0.5000050E+01  0.7818608E-02  0.2136455E+00
        -11   -1    0    0    0    0  0.00000000000E+00  0.00000000000E+00  0.50000499739E+01  0.50000500000E+01  0.51100000000E-03 0.  1.
         11   -1    0    0    0    0 -0.00000000000E+00 -0.00000000000E+00 -0.50000499739E+01  0.50000500000E+01  0.51100000000E-03 0. -1.
         50    1    1    2    0    0 -0.11162590188E-01 -0.89119815269E-02  0.17203943314E-01  0.50000500000E+01  0.50000000000E+01 0.  0.
         50    1    1    2    0    0  0.11162590188E-01  0.89119815269E-02 -0.17203943314E-01  0.50000500000E+01  0.50000000000E+01 0. -1.
</event>
<event>
 4    1  0.4944208E-021  0.5000050E+01  0.7818608E-02  0.2136455E+00
        -11   -1    0    0    0    0  0.00000000000E+00  0.00000000000E+00  0.50000499739E+01  0.50000500000E+01  0.51100000000E-03 0. -1.
         11   -1    0    0    0    0 -0.00000000000E+00 -0.00000000000E+00 -0.50000499739E+01  0.50000500000E+01  0.51100000000E-03 0.  1.
         50    1    1    2    0    0 -0.16750899923E-01  0.14810986878E-01  0.21099631477E-03  0.50000500000E+01  0.50000000000E+01 0.  1.
         50    1    1    2    0    0  0.16750899923E-01 -0.14810986878E-01 -0.21099631477E-03  0.50000500000E+01  0.50000000000E+01 0.  0.
</event>
<event>
 4    1  0.4944208E-021  0.5000050E+01  0.7818608E-02  0.2136455E+00
        -11   -1    0    0    0    0  0.00000000000E+00  0.00000000000E+00  0.50000499739E+01  0.50000500000E+01  0.51100000000E-03 0. -1.
         11   -1    0    0    0    0 -0.00000000000E+00 -0.00000000000E+00 -0.50000499739E+01  0.50000500000E+01  0.51100000000E-03 0.  1.
         50    1    1    2    0    0 -0.10665346882E-01  0.10333400106E-02  0.19626132689E-01  0.50000500000E+01  0.50000000000E+01 0.  0.
         50    1    1    2    0    0  0.10665346882E-01 -0.10333400106E-02 -0.19626132689E-01  0.50000500000E+01  0.50000000000E+01 0.  0.
</event>
<event>
 4    1  0.4944208E-021  0.5000050E+01  0.7818608E-02  0.2136455E+00
        -11   -1    0    0    0    0  0.00000000000E+00  0.00000000000E+00  0.50000499739E+01  0.50000500000E+01  0.51100000000E-03 0.  1.
         11   -1    0    0    0    0 -0.00000000000E+00 -0.00000000000E+00 -0.50000499739E+01  0.50000500000E+01  0.51100000000E-03 0. -1.
         50    1    1    2    0    0 -0.20442674291E-02  0.15312677300E-01 -0.16166180272E-01  0.50000500000E+01  0.50000000000E+01 0. -1.
         50    1    1    2    0    0  0.20442674291E-02 -0.15312677300E-01  0.16166180272E-01  0.50000500000E+01  0.50000000000E+01 0.  1.
</event>
<event>
 4    1  0.4944208E-021  0.5000050E+01  0.7818608E-02  0.2136455E+00
        -11   -1    0    0    0    0  0.00000000000E+00  0.00000000000E+00  0.50000499739E+01  0.50000500000E+01  0.51100000000E-03 0. -1.
         11   -1    0    0    0    0 -0.00000000000E+00 -0.00000000000E+00 -0.50000499739E+01  0.50000500000E+01  0.51100000000E-03 0.  1.
         50    1    1    2    0    0 -0.18602181167E-01 -0.46836118689E-02 -0.11490219132E-01  0.50000500000E+01  0.50000000000E+01 0.  1.
         50    1    1    2    0    0  0.18602181167E-01  0.46836118689E-02  0.11490219132E-01  0.50000500000E+01  0.50000000000E+01 0. -1.
</event>
<event>
 4    1  0.4944208E-021  0.5000050E+01  0.7818608E-02  0.2136455E+00
        -11   -1    0    0    0    0  0.00000000000E+00  0.00000000000E+00  0.50000499739E+01  0.50000500000E+01  0.51100000000E-03 0. -1.
         11   -1    0    0    0    0 -0.00000000000E+00 -0.00000000000E+00 -0.50000499739E+01  0.50000500000E+01  0.51100000000E-03 0.  1.
         50    1    1    2    0    0  0.84285490851E-02 -0.81411745970E-02 -0.19044246808E-01  0.50000500000E+01  0.50000000000E+01 0.  0.
         50    1    1    2    0    0 -0.84285490851E-02  0.81411745970E-02  0.19044246808E-01  0.50000500000E+01  0.50000000000E+01 0.  0.
</event>
<event>
 4    1  0.4944208E-021  0.5000050E+01  0.7818608E-02  0.2136455E+00
        -11   -1    0    0    0    0  0.00000000000E+00  0.00000000000E+00  0.50000499739E+01  0.50000500000E+01  0.51100000000E-03 0. -1.
         11   -1    0    0    0    0 -0.00000000000E+00 -0.00000000000E+00 -0.50000499739E+01  0.50000500000E+01  0.51100000000E-03 0.  1.
         50    1    1    2    0    0 -0.11882946874E-01 -0.15388199436E-01 -0.11045424016E-01  0.50000500000E+01  0.50000000000E+01 0.  0.
         50    1    1    2    0    0  0.11882946874E-01  0.15388199436E-01  0.11045424016E-01  0.50000500000E+01  0.50000000000E+01 0.  0.
</event>
<event>
 4    1  0.4944208E-021  0.5000050E+01  0.7818608E-02  0.2136455E+00
        -11   -1    0    0    0    0  0.00000000000E+00  0.00000000000E+00  0.50000499739E+01  0.50000500000E+01  0.51100000000E-03 0.  1.
         11   -1    0    0    0    0 -0.00000000000E+00 -0.00000000000E+00 -0.50000499739E+01  0.50000500000E+01  0.51100000000E-03 0. -1.
         50    1    1    2    0    0  0.19687990223E-01  0.10500487280E-01  0.14578435698E-02  0.50000500000E+01  0.50000000000E+01 0.  1.
         50    1    1    2    0    0 -0.19687990223E-01 -0.10500487280E-01 -0.14578435698E-02  0.50000500000E+01  0.50000000000E+01 0.  0.
</event>
<event>
 4    1  0.4944208E-021  0.5000050E+01  0.7818608E-02  0.2136455E+00
        -11   -1    0    0    0    0  0.00000000000E+00  0.00000000000E+00  0.50000499739E+01  0.50000500000E+01  0.51100000000E-03 0. -1.
         11   -1    0    0    0    0 -0.00000000000E+00 -0.00000000000E+00 -0.50000499739E+01  0.50000500000E+01  0.51100000000E-03 0.  1.
         50    1    1    2    0    0  0.19847718643E-02  0.15446457232E-01  0.16045876094E-01  0.50000500000E+01  0.50000000000E+01 0.  0.
         50    1    1    2    0    0 -0.19847718643E-02 -0.15446457232E-01 -0.16045876094E-01  0.50000500000E+01  0.50000000000E+01 0.  0.
</event>
<event>
 4    1  0.4944208E-021  0.5000050E+01  0.7818608E-02  0.2136455E+00
        -11   -1    0    0    0    0  0.00000000000E+00  0.00000000000E+00  0.50000499739E+01  0.50000500000E+01  0.51100000000E-03 0. -1.
         11   -1    0    0    0    0 -0.00000000000E+00 -0.00000000000E+00 -0.50000499739E+01  0.50000500000E+01  0.51100000000E-03 0.  1.
         50    1    1    2    0    0 -0.67010567762E-02  0.20201007208E-01  0.68569414369E-02  0.50000500000E+01  0.50000000000E+01 0. -1.
         50    1    1    2    0    0  0.67010567762E-02 -0.20201007208E-01 -0.68569414369E-02  0.50000500000E+01  0.50000000000E+01 0.  1.
</event>
<event>
 4    1  0.4944208E-021  0.5000050E+01  0.7818608E-02  0.2136455E+00
        -11   -1    0    0    0    0  0.00000000000E+00  0.00000000000E+00  0.50000499739E+01  0.50000500000E+01  0.51100000000E-03 0. -1.
         11   -1    0    0    0    0 -0.00000000000E+00 -0.00000000000E+00 -0.50000499739E+01  0.50000500000E+01  0.51100000000E-03 0.  1.
         50    1    1    2    0    0 -0.72447646643E-02  0.19147331688E-01 -0.89941966948E-02  0.50000500000E+01  0.50000000000E+01 0.  1.
         50    1    1    2    0    0  0.72447646643E-02 -0.19147331688E-01  0.89941966948E-02  0.50000500000E+01  0.50000000000E+01 0.  1.
</event>
<event>
 4    1  0.4944208E-021  0.5000050E+01  0.7818608E-02  0.2136455E+00
        -11   -1    0    0    0    0  0.00000000000E+00  0.00000000000E+00  0.50000499739E+01  0.50000500000E+01  0.51100000000E-03 0.  1.
         11   -1    0    0    0    0 -0.00000000000E+00 -0.00000000000E+00 -0.50000499739E+01  0.50000500000E+01  0.51100000000E-03 0. -1.
         50    1    1    2    0    0  0.18979345703E-01  0.41631975797E-03  0.11815820520E-01  0.50000500000E+01  0.50000000000E+01 0.  0.
         50    1    1    2    0    0 -0.18979345703E-01 -0.41631975797E-03 -0.11815820520E-01  0.50000500000E+01  0.50000000000E+01 0.  0.
</event>
<event>
 4    1  0.4944208E-021  0.5000050E+01  0.7818608E-02  0.2136455E+00
        -11   -1    0    0    0    0  0.00000000000E+00  0.00000000000E+00  0.50000499739E+01  0.50000500000E+01  0.51100000000E-03 0.  1.
         11   -1    0    0    0    0 -0.00000000000E+00 -0.00000000000E+00 -0.50000499739E+01  0.50000500000E+01  0.51100000000E-03 0. -1.
         50    1    1    2    0    0  0.94763983340E-03  0.20409404784E-01  0.90862905041E-02  0.50000500000E+01  0.50000000000E+01 0. -1.
         50    1    1    2    0    0 -0.94763983340E-03 -0.20409404784E-01 -0.90862905041E-02  0.50000500000E+01  0.50000000000E+01 0.  0.
</event>
<event>
 4    1  0.4944208E-021  0.5000050E+01  0.7818608E-02  0.2136455E+00
        -11   -1    0    0    0    0  0.00000000000E+00  0.00000000000E+00  0.50000499739E+01  0.50000500000E+01  0.51100000000E-03 0. -1.
         11   -1    0    0    0    0 -0.00000000000E+00 -0.00000000000E+00 -0.50000499739E+01  0.50000500000E+01  0.51100000000E-03 0.  1.
         50    1    1    2    0    0 -0.79636440751E-02 -0.10571048069E-01 -0.18023202151E-01  0.50000500000E+01  0.50000000000E+01 0.  1.
         50    1    1    2    0    0  0.79636440751E-02  0.10571048069E-01  0.18023202151E-01  0.50000500000E+01  0.50000000000E+01 0. -1.
</event>
<event>
 4    1  0.4944208E-021  0.5000050E+01  0.7818608E-02  0.2136455E+00
        -11   -1    0    0    0    0  0.00000000000E+00  0.00000000000E+00  0.50000499739E+01  0.50000500000E+01  0.51100000000E-03 0. -1.
         11   -1    0    0    0    0 -0.00000000000E+00 -0.00000000000E+00 -0.50000499739E+01  0.50000500000E+01  0.51100000000E-03 0.  1.
         50    1    1    2    0    0  0.18863988869E-01 -0.35990119147E-02 -0.11454236647E-01  0.50000500000E+01  0.50000000000E+01 0.  1.
         50    1    1    2    0    0 -0.18863988869E-01  0.35990119147E-02  0.11454236647E-01  0.50000500000E+01  0.50000000000E+01 0. -1.
</event>
<event>
 4    1  0.4944208E-021  0.5000050E+01  0.7818608E-02  0.2136455E+00
        -11   -1    0    0    0    0  0.00000000000E+00  0.00000000000E+00  0.50000499739E+01  0.50000500000E+01  0.51100000000E-03 0.  1.
         11   -1    0    0    0    0 -0.00000000000E+00 -0.00000000000E+00 -0.50000499739E+01  0.50000500000E+01  0.51100000000E-03 0. -1.
         50    1    1    2    0    0 -0.93683573508E-02 -0.37847429209E-02  0.19947734246E-01  0.50000500000E+01  0.50000000000E+01 0.  0.
         50    1    1    2    0    0  0.93683573508E-02  0.37847429209E-02 -0.19947734246E-01  0.50000500000E+01  0.50000000000E+01 0.  0.
</event>
<event>
 4    1  0.4944208E-021  0.5000050E+01  0.7818608E-02  0.2136455E+00
        -11   -1    0    0    0    0  0.00000000000E+00  0.00000000000E+00  0.50000499739E+01  0.50000500000E+01  0.51100000000E-03 0.  1.
         11   -1    0    0    0    0 -0.00000000000E+00 -0.00000000000E+00 -0.50000499739E+01  0.50000500000E+01  0.51100000000E-03 0. -1.
         50    1    1    2    0    0  0.11635846036E-01 -0.18884977719E-01  0.28226235250E-02  0.50000500000E+01  0.50000000000E+01 0.  1.
         50    1    1    2    0    0 -0.11635846036E-01  0.18884977719E-01 -0.28226235250E-02  0.50000500000E+01  0.50000000000E+01 0.  0.
</event>
<event>
 4    1  0.4944208E-021  0.5000050E+01  0.7818608E-02  0.2136455E+00
        -11   -1    0    0    0    0  0.00000000000E+00  0.00000000000E+00  0.50000499739E+01  0.50000500000E+01  0.51100000000E-03 0.  1.
         11   -1    0    0    0    0 -0.00000000000E+00 -0.00000000000E+00 -0.50000499739E+01  0.50000500000E+01  0.51100000000E-03 0. -1.
         50    1    1    2    0    0  0.20043489449E-01 -0.59675917589E-02 -0.79151045033E-02  0.50000500000E+01  0.50000000000E+01 0.  1.
         50    1    1    2    0    0 -0.20043489449E-01  0.59675917589E-02  0.79151045033E-02  0.50000500000E+01  0.50000000000E+01 0.  0.
</event>
<event>
 4    1  0.4944208E-021  0.5000050E+01  0.7818608E-02  0.2136455E+00
        -11   -1    0    0    0    0  0.00000000000E+00  0.00000000000E+00  0.50000499739E+01  0.50000500000E+01  0.51100000000E-03 0. -1.
         11   -1    0    0    0    0 -0.00000000000E+00 -0.00000000000E+00 -0.50000499739E+01  0.50000500000E+01  0.51100000000E-03 0.  1.
         50    1    1    2    0    0  0.29900478967E-02 -0.19020004115E-01 -0.11371084251E-01  0.50000500000E+01  0.50000000000E+01 0.  1.
         50    1    1    2    0    0 -0.29900478967E-02  0.19020004115E-01  0.11371084251E-01  0.50000500000E+01  0.50000000000E+01 0. -1.
</event>
<event>
 4    1  0.4944208E-021  0.5000050E+01  0.7818608E-02  0.2136455E+00
        -11   -1    0    0    0    0  0.00000000000E+00  0.00000000000E+00  0.50000499739E+01  0.50000500000E+01  0.51100000000E-03 0.  1.
         11   -1    0    0    0    0 -0.00000000000E+00 -0.00000000000E+00 -0.50000499739E+01  0.50000500000E+01  0.51100000000E-03 0. -1.
         50    1    1    2    0    0 -0.20530505385E-01 -0.63742386637E-02 -0.61538548979E-02  0.50000500000E+01  0.50000000000E+01 0. -1.
         50    1    1    2    0    0  0.20530505385E-01  0.63742386637E-02  0.61538548979E-02  0.50000500000E+01  0.50000000000E+01 0.  1.
</event>
<event>
 4    1  0.4944208E-021  0.5000050E+01  0.7818608E-02  0.2136455E+00
        -11   -1    0    0    0    0  0.00000000000E+00  0.00000000000E+00  0.50000499739E+01  0.50000500000E+01  0.51100000000E-03 0.  1.
         11   -1    0    0    0    0 -0.00000000000E+00 -0.00000000000E+00 -0.50000499739E+01  0.50000500000E+01  0.51100000000E-03 0. -1.
         50    1    1    2    0    0  0.13773584017E-01  0.44168301378E-02 -0.17052345729E-01  0.50000500000E+01  0.50000000000E+01 0.  0.
         50    1    1    2    0    0 -0.13773584017E-01 -0.44168301378E-02  0.17052345729E-01  0.50000500000E+01  0.50000000000E+01 0.  0.
</event>
<event>
 4    1  0.4944208E-021  0.5000050E+01  0.7818608E-02  0.2136455E+00
        -11   -1    0    0    0    0  0.00000000000E+00  0.00000000000E+00  0.50000499739E+01  0.50000500000E+01  0.51100000000E-03 0. -1.
         11   -1    0    0    0    0 -0.00000000000E+00 -0.00000000000E+00 -0.50000499739E+01  0.50000500000E+01  0.51100000000E-03 0.  1.
         50    1    1    2    0    0 -0.81915683779E-03  0.13177984930E-01 -0.18046390089E-01  0.50000500000E+01  0.50000000000E+01 0.  0.
         50    1    1    2    0    0  0.81915683779E-03 -0.13177984930E-01  0.18046390089E-01  0.50000500000E+01  0.50000000000E+01 0. -1.
</event>
<event>
 4    1  0.4944208E-021  0.5000050E+01  0.7818608E-02  0.2136455E+00
        -11   -1    0    0    0    0  0.00000000000E+00  0.00000000000E+00  0.50000499739E+01  0.50000500000E+01  0.51100000000E-03 0. -1.
         11   -1    0    0    0    0 -0.00000000000E+00 -0.00000000000E+00 -0.50000499739E+01  0.50000500000E+01  0.51100000000E-03 0.  1.
         50    1    1    2    0    0 -0.20278725817E-01 -0.24516200662E-03 -0.94188998733E-02  0.50000500000E+01  0.50000000000E+01 0.  0.
         50    1    1    2    0    0  0.20278725817E-01  0.24516200662E-03  0.94188998733E-02  0.50000500000E+01  0.50000000000E+01 0. -1.
</event>
<event>
 4    1  0.4944208E-021  0.5000050E+01  0.7818608E-02  0.2136455E+00
        -11   -1    0    0    0    0  0.00000000000E+00  0.00000000000E+00  0.50000499739E+01  0.50000500000E+01  0.51100000000E-03 0. -1.
         11   -1    0    0    0    0 -0.00000000000E+00 -0.00000000000E+00 -0.50000499739E+01  0.50000500000E+01  0.51100000000E-03 0.  1.
         50    1    1    2    0    0 -0.14686586389E-01 -0.15535193731E-01 -0.65547262331E-02  0.50000500000E+01  0.50000000000E+01 0. -1.
         50    1    1    2    0    0  0.14686586389E-01  0.15535193731E-01  0.65547262331E-02  0.50000500000E+01  0.50000000000E+01 0.  0.
</event>
<event>
 4    1  0.4944208E-021  0.5000050E+01  0.7818608E-02  0.2136455E+00
        -11   -1    0    0    0    0  0.00000000000E+00  0.00000000000E+00  0.50000499739E+01  0.50000500000E+01  0.51100000000E-03 0. -1.
         11   -1    0    0    0    0 -0.00000000000E+00 -0.00000000000E+00 -0.50000499739E+01  0.50000500000E+01  0.51100000000E-03 0.  1.
         50    1    1    2    0    0 -0.18565304959E-03 -0.19964719446E-01 -0.10068664777E-01  0.50000500000E+01  0.50000000000E+01 0.  1.
         50    1    1    2    0    0  0.18565304959E-03  0.19964719446E-01  0.10068664777E-01  0.50000500000E+01  0.50000000000E+01 0. -1.
</event>
<event>
 4    1  0.4944208E-021  0.5000050E+01  0.7818608E-02  0.2136455E+00
        -11   -1    0    0    0    0  0.00000000000E+00  0.00000000000E+00  0.50000499739E+01  0.50000500000E+01  0.51100000000E-03 0.  1.
         11   -1    0    0    0    0 -0.00000000000E+00 -0.00000000000E+00 -0.50000499739E+01  0.50000500000E+01  0.51100000000E-03 0. -1.
         50    1    1    2    0    0  0.93109833758E-02  0.15231017934E-01 -0.13465666759E-01  0.50000500000E+01  0.50000000000E+01 0.  0.
         50    1    1    2    0    0 -0.93109833758E-02 -0.15231017934E-01  0.13465666759E-01  0.50000500000E+01  0.50000000000E+01 0. -1.
</event>
<event>
 4    1  0.4944208E-021  0.5000050E+01  0.7818608E-02  0.2136455E+00
        -11   -1    0    0    0    0  0.00000000000E+00  0.00000000000E+00  0.50000499739E+01  0.50000500000E+01  0.51100000000E-03 0.  1.
         11   -1    0    0    0    0 -0.00000000000E+00 -0.00000000000E+00 -0.50000499739E+01  0.50000500000E+01  0.51100000000E-03 0. -1.
         50    1    1    2    0    0 -0.99251076027E-02  0.19717929695E-01 -0.35634235815E-02  0.50000500000E+01  0.50000000000E+01 0.  1.
         50    1    1    2    0    0  0.99251076027E-02 -0.19717929695E-01  0.35634235815E-02  0.50000500000E+01  0.50000000000E+01 0.  0.
</event>
<event>
 4    1  0.4944208E-021  0.5000050E+01  0.7818608E-02  0.2136455E+00
        -11   -1    0    0    0    0  0.00000000000E+00  0.00000000000E+00  0.50000499739E+01  0.50000500000E+01  0.51100000000E-03 0. -1.
         11   -1    0    0    0    0 -0.00000000000E+00 -0.00000000000E+00 -0.50000499739E+01  0.50000500000E+01  0.51100000000E-03 0.  1.
         50    1    1    2    0    0  0.20413499186E-01  0.19359020704E-02 -0.89187350086E-02  0.50000500000E+01  0.50000000000E+01 0.  1.
         50    1    1    2    0    0 -0.20413499186E-01 -0.19359020704E-02  0.89187350086E-02  0.50000500000E+01  0.50000000000E+01 0. -1.
</event>
<event>
 4    1  0.4944208E-021  0.5000050E+01  0.7818608E-02  0.2136455E+00
        -11   -1    0    0    0    0  0.00000000000E+00  0.00000000000E+00  0.50000499739E+01  0.50000500000E+01  0.51100000000E-03 0.  1.
         11   -1    0    0    0    0 -0.00000000000E+00 -0.00000000000E+00 -0.50000499739E+01  0.50000500000E+01  0.51100000000E-03 0. -1.
         50    1    1    2    0    0  0.19494025042E-01  0.35660162148E-02 -0.10357075649E-01  0.50000500000E+01  0.50000000000E+01 0. -1.
         50    1    1    2    0    0 -0.19494025042E-01 -0.35660162148E-02  0.10357075649E-01  0.50000500000E+01  0.50000000000E+01 0.  1.
</event>
<event>
 4    1  0.4944208E-021  0.5000050E+01  0.7818608E-02  0.2136455E+00
        -11   -1    0    0    0    0  0.00000000000E+00  0.00000000000E+00  0.50000499739E+01  0.50000500000E+01  0.51100000000E-03 0. -1.
         11   -1    0    0    0    0 -0.00000000000E+00 -0.00000000000E+00 -0.50000499739E+01  0.50000500000E+01  0.51100000000E-03 0.  1.
         50    1    1    2    0    0  0.16170916018E-01 -0.11680113461E-01 -0.10103411537E-01  0.50000500000E+01  0.50000000000E+01 0.  0.
         50    1    1    2    0    0 -0.16170916018E-01  0.11680113461E-01  0.10103411537E-01  0.50000500000E+01  0.50000000000E+01 0.  0.
</event>
<event>
 4    1  0.4944208E-021  0.5000050E+01  0.7818608E-02  0.2136455E+00
        -11   -1    0    0    0    0  0.00000000000E+00  0.00000000000E+00  0.50000499739E+01  0.50000500000E+01  0.51100000000E-03 0. -1.
         11   -1    0    0    0    0 -0.00000000000E+00 -0.00000000000E+00 -0.50000499739E+01  0.50000500000E+01  0.51100000000E-03 0.  1.
         50    1    1    2    0    0  0.11820515880E-01  0.15325510183E-02  0.18919016669E-01  0.50000500000E+01  0.50000000000E+01 0.  0.
         50    1    1    2    0    0 -0.11820515880E-01 -0.15325510183E-02 -0.18919016669E-01  0.50000500000E+01  0.50000000000E+01 0.  1.
</event>
<event>
 4    1  0.4944208E-021  0.5000050E+01  0.7818608E-02  0.2136455E+00
        -11   -1    0    0    0    0  0.00000000000E+00  0.00000000000E+00  0.50000499739E+01  0.50000500000E+01  0.51100000000E-03 0. -1.
         11   -1    0    0    0    0 -0.00000000000E+00 -0.00000000000E+00 -0.50000499739E+01  0.50000500000E+01  0.51100000000E-03 0.  1.
         50    1    1    2    0    0 -0.36893365722E-02  0.17700723672E-01 -0.13155822937E-01  0.50000500000E+01  0.50000000000E+01 0.  0.
         50    1    1    2    0    0  0.36893365722E-02 -0.17700723672E-01  0.13155822937E-01  0.50000500000E+01  0.50000000000E+01 0.  1.
</event>
<event>
 4    1  0.4944208E-021  0.5000050E+01  0.7818608E-02  0.2136455E+00
        -11   -1    0    0    0    0  0.00000000000E+00  0.00000000000E+00  0.50000499739E+01  0.50000500000E+01  0.51100000000E-03 0.  1.
         11   -1    0    0    0    0 -0.00000000000E+00 -0.00000000000E+00 -0.50000499739E+01  0.50000500000E+01  0.51100000000E-03 0. -1.
         50    1    1    2    0    0  0.11551233184E-01 -0.16496881829E-01 -0.97172219209E-02  0.50000500000E+01  0.50000000000E+01 0. -1.
         50    1    1    2    0    0 -0.11551233184E-01  0.16496881829E-01  0.97172219209E-02  0.50000500000E+01  0.50000000000E+01 0. -1.
</event>
<event>
 4    1  0.4944208E-021  0.5000050E+01  0.7818608E-02  0.2136455E+00
        -11   -1    0    0    0    0  0.00000000000E+00  0.00000000000E+00  0.50000499739E+01  0.50000500000E+01  0.51100000000E-03 0. -1.
         11   -1    0    0    0    0 -0.00000000000E+00 -0.00000000000E+00 -0.50000499739E+01  0.50000500000E+01  0.51100000000E-03 0.  1.
         50    1    1    2    0    0 -0.20472341187E-01  0.32976615060E-02  0.83672680663E-02  0.50000500000E+01  0.50000000000E+01 0.  0.
         50    1    1    2    0    0  0.20472341187E-01 -0.32976615060E-02 -0.83672680663E-02  0.50000500000E+01  0.50000000000E+01 0. -1.
</event>
<event>
 4    1  0.4944208E-021  0.5000050E+01  0.7818608E-02  0.2136455E+00
        -11   -1    0    0    0    0  0.00000000000E+00  0.00000000000E+00  0.50000499739E+01  0.50000500000E+01  0.51100000000E-03 0. -1.
         11   -1    0    0    0    0 -0.00000000000E+00 -0.00000000000E+00 -0.50000499739E+01  0.50000500000E+01  0.51100000000E-03 0.  1.
         50    1    1    2    0    0  0.53348752401E-02  0.17597782122E-02  0.21643585350E-01  0.50000500000E+01  0.50000000000E+01 0. -1.
         50    1    1    2    0    0 -0.53348752401E-02 -0.17597782122E-02 -0.21643585350E-01  0.50000500000E+01  0.50000000000E+01 0.  0.
</event>
<event>
 4    1  0.4944208E-021  0.5000050E+01  0.7818608E-02  0.2136455E+00
        -11   -1    0    0    0    0  0.00000000000E+00  0.00000000000E+00  0.50000499739E+01  0.50000500000E+01  0.51100000000E-03 0.  1.
         11   -1    0    0    0    0 -0.00000000000E+00 -0.00000000000E+00 -0.50000499739E+01  0.50000500000E+01  0.51100000000E-03 0. -1.
         50    1    1    2    0    0 -0.10606459248E-02 -0.17637692843E-01  0.13703624389E-01  0.50000500000E+01  0.50000000000E+01 0.  0.
         50    1    1    2    0    0  0.10606459248E-02  0.17637692843E-01 -0.13703624389E-01  0.50000500000E+01  0.50000000000E+01 0.  1.
</event>
<event>
 4    1  0.4944208E-021  0.5000050E+01  0.7818608E-02  0.2136455E+00
        -11   -1    0    0    0    0  0.00000000000E+00  0.00000000000E+00  0.50000499739E+01  0.50000500000E+01  0.51100000000E-03 0.  1.
         11   -1    0    0    0    0 -0.00000000000E+00 -0.00000000000E+00 -0.50000499739E+01  0.50000500000E+01  0.51100000000E-03 0. -1.
         50    1    1    2    0    0 -0.14093987211E-01 -0.35491098704E-03  0.17356153453E-01  0.50000500000E+01  0.50000000000E+01 0.  1.
         50    1    1    2    0    0  0.14093987211E-01  0.35491098704E-03 -0.17356153453E-01  0.50000500000E+01  0.50000000000E+01 0.  0.
</event>
<event>
 4    1  0.4944208E-021  0.5000050E+01  0.7818608E-02  0.2136455E+00
        -11   -1    0    0    0    0  0.00000000000E+00  0.00000000000E+00  0.50000499739E+01  0.50000500000E+01  0.51100000000E-03 0. -1.
         11   -1    0    0    0    0 -0.00000000000E+00 -0.00000000000E+00 -0.50000499739E+01  0.50000500000E+01  0.51100000000E-03 0.  1.
         50    1    1    2    0    0  0.15291239152E-01 -0.15578088400E-01  0.48480580638E-02  0.50000500000E+01  0.50000000000E+01 0.  1.
         50    1    1    2    0    0 -0.15291239152E-01  0.15578088400E-01 -0.48480580638E-02  0.50000500000E+01  0.50000000000E+01 0.  0.
</event>
<event>
 4    1  0.4944208E-021  0.5000050E+01  0.7818608E-02  0.2136455E+00
        -11   -1    0    0    0    0  0.00000000000E+00  0.00000000000E+00  0.50000499739E+01  0.50000500000E+01  0.51100000000E-03 0. -1.
         11   -1    0    0    0    0 -0.00000000000E+00 -0.00000000000E+00 -0.50000499739E+01  0.50000500000E+01  0.51100000000E-03 0.  1.
         50    1    1    2    0    0  0.13606061507E-01 -0.17359506784E-01 -0.36776506715E-02  0.50000500000E+01  0.50000000000E+01 0.  1.
         50    1    1    2    0    0 -0.13606061507E-01  0.17359506784E-01  0.36776506715E-02  0.50000500000E+01  0.50000000000E+01 0. -1.
</event>
<event>
 4    1  0.4944208E-021  0.5000050E+01  0.7818608E-02  0.2136455E+00
        -11   -1    0    0    0    0  0.00000000000E+00  0.00000000000E+00  0.50000499739E+01  0.50000500000E+01  0.51100000000E-03 0.  1.
         11   -1    0    0    0    0 -0.00000000000E+00 -0.00000000000E+00 -0.50000499739E+01  0.50000500000E+01  0.51100000000E-03 0. -1.
         50    1    1    2    0    0 -0.18758293078E-01 -0.78871197045E-03  0.12145240805E-01  0.50000500000E+01  0.50000000000E+01 0.  1.
         50    1    1    2    0    0  0.18758293078E-01  0.78871197045E-03 -0.12145240805E-01  0.50000500000E+01  0.50000000000E+01 0. -1.
</event>
<event>
 4    1  0.4944208E-021  0.5000050E+01  0.7818608E-02  0.2136455E+00
        -11   -1    0    0    0    0  0.00000000000E+00  0.00000000000E+00  0.50000499739E+01  0.50000500000E+01  0.51100000000E-03 0.  1.
         11   -1    0    0    0    0 -0.00000000000E+00 -0.00000000000E+00 -0.50000499739E+01  0.50000500000E+01  0.51100000000E-03 0. -1.
         50    1    1    2    0    0  0.17978351783E-01 -0.28413503675E-02 -0.12988768042E-01  0.50000500000E+01  0.50000000000E+01 0. -1.
         50    1    1    2    0    0 -0.17978351783E-01  0.28413503675E-02  0.12988768042E-01  0.50000500000E+01  0.50000000000E+01 0.  1.
</event>
<event>
 4    1  0.4944208E-021  0.5000050E+01  0.7818608E-02  0.2136455E+00
        -11   -1    0    0    0    0  0.00000000000E+00  0.00000000000E+00  0.50000499739E+01  0.50000500000E+01  0.51100000000E-03 0. -1.
         11   -1    0    0    0    0 -0.00000000000E+00 -0.00000000000E+00 -0.50000499739E+01  0.50000500000E+01  0.51100000000E-03 0.  1.
         50    1    1    2    0    0 -0.83582970233E-02 -0.14662958127E-01  0.14667618410E-01  0.50000500000E+01  0.50000000000E+01 0.  0.
         50    1    1    2    0    0  0.83582970233E-02  0.14662958127E-01 -0.14667618410E-01  0.50000500000E+01  0.50000000000E+01 0.  1.
</event>
<event>
 4    1  0.4944208E-021  0.5000050E+01  0.7818608E-02  0.2136455E+00
        -11   -1    0    0    0    0  0.00000000000E+00  0.00000000000E+00  0.50000499739E+01  0.50000500000E+01  0.51100000000E-03 0.  1.
         11   -1    0    0    0    0 -0.00000000000E+00 -0.00000000000E+00 -0.50000499739E+01  0.50000500000E+01  0.51100000000E-03 0. -1.
         50    1    1    2    0    0  0.37791351196E-02 -0.21832626147E-01  0.30094971786E-02  0.50000500000E+01  0.50000000000E+01 0.  1.
         50    1    1    2    0    0 -0.37791351196E-02  0.21832626147E-01 -0.30094971786E-02  0.50000500000E+01  0.50000000000E+01 0.  0.
</event>
<event>
 4    1  0.4944208E-021  0.5000050E+01  0.7818608E-02  0.2136455E+00
        -11   -1    0    0    0    0  0.00000000000E+00  0.00000000000E+00  0.50000499739E+01  0.50000500000E+01  0.51100000000E-03 0. -1.
         11   -1    0    0    0    0 -0.00000000000E+00 -0.00000000000E+00 -0.50000499739E+01  0.50000500000E+01  0.51100000000E-03 0.  1.
         50    1    1    2    0    0 -0.15562256146E-01 -0.14612687732E-01 -0.66549260631E-02  0.50000500000E+01  0.50000000000E+01 0.  1.
         50    1    1    2    0    0  0.15562256146E-01  0.14612687732E-01  0.66549260631E-02  0.50000500000E+01  0.50000000000E+01 0. -1.
</event>
<event>
 4    1  0.4944208E-021  0.5000050E+01  0.7818608E-02  0.2136455E+00
        -11   -1    0    0    0    0  0.00000000000E+00  0.00000000000E+00  0.50000499739E+01  0.50000500000E+01  0.51100000000E-03 0. -1.
         11   -1    0    0    0    0 -0.00000000000E+00 -0.00000000000E+00 -0.50000499739E+01  0.50000500000E+01  0.51100000000E-03 0.  1.
         50    1    1    2    0    0 -0.26182337220E-02  0.21402422766E-01  0.59231454410E-02  0.50000500000E+01  0.50000000000E+01 0. -1.
         50    1    1    2    0    0  0.26182337220E-02 -0.21402422766E-01 -0.59231454410E-02  0.50000500000E+01  0.50000000000E+01 0.  1.
</event>
<event>
 4    1  0.4944208E-021  0.5000050E+01  0.7818608E-02  0.2136455E+00
        -11   -1    0    0    0    0  0.00000000000E+00  0.00000000000E+00  0.50000499739E+01  0.50000500000E+01  0.51100000000E-03 0. -1.
         11   -1    0    0    0    0 -0.00000000000E+00 -0.00000000000E+00 -0.50000499739E+01  0.50000500000E+01  0.51100000000E-03 0.  1.
         50    1    1    2    0    0 -0.82444459872E-02  0.15442301037E-01 -0.13912833969E-01  0.50000500000E+01  0.50000000000E+01 0. -1.
         50    1    1    2    0    0  0.82444459872E-02 -0.15442301037E-01  0.13912833969E-01  0.50000500000E+01  0.50000000000E+01 0. -1.
</event>
<event>
 4    1  0.4944208E-021  0.5000050E+01  0.7818608E-02  0.2136455E+00
        -11   -1    0    0    0    0  0.00000000000E+00  0.00000000000E+00  0.50000499739E+01  0.50000500000E+01  0.51100000000E-03 0.  1.
         11   -1    0    0    0    0 -0.00000000000E+00 -0.00000000000E+00 -0.50000499739E+01  0.50000500000E+01  0.51100000000E-03 0. -1.
         50    1    1    2    0    0  0.68925442499E-02  0.20899459031E-01 -0.39633251164E-02  0.50000500000E+01  0.50000000000E+01 0.  1.
         50    1    1    2    0    0 -0.68925442499E-02 -0.20899459031E-01  0.39633251164E-02  0.50000500000E+01  0.50000000000E+01 0. -1.
</event>
<event>
 4    1  0.4944208E-021  0.5000050E+01  0.7818608E-02  0.2136455E+00
        -11   -1    0    0    0    0  0.00000000000E+00  0.00000000000E+00  0.50000499739E+01  0.50000500000E+01  0.51100000000E-03 0.  1.
         11   -1    0    0    0    0 -0.00000000000E+00 -0.00000000000E+00 -0.50000499739E+01  0.50000500000E+01  0.51100000000E-03 0. -1.
         50    1    1    2    0    0  0.71694437860E-02  0.20357716015E-01 -0.58450812191E-02  0.50000500000E+01  0.50000000000E+01 0. -1.
         50    1    1    2    0    0 -0.71694437860E-02 -0.20357716015E-01  0.58450812191E-02  0.50000500000E+01  0.50000000000E+01 0.  1.
</event>
<event>
 4    1  0.4944208E-021  0.5000050E+01  0.7818608E-02  0.2136455E+00
        -11   -1    0    0    0    0  0.00000000000E+00  0.00000000000E+00  0.50000499739E+01  0.50000500000E+01  0.51100000000E-03 0.  1.
         11   -1    0    0    0    0 -0.00000000000E+00 -0.00000000000E+00 -0.50000499739E+01  0.50000500000E+01  0.51100000000E-03 0. -1.
         50    1    1    2    0    0 -0.12698253252E-01 -0.17644164709E-01  0.52383505094E-02  0.50000500000E+01  0.50000000000E+01 0. -1.
         50    1    1    2    0    0  0.12698253252E-01  0.17644164709E-01 -0.52383505094E-02  0.50000500000E+01  0.50000000000E+01 0.  0.
</event>
<event>
 4    1  0.4944208E-021  0.5000050E+01  0.7818608E-02  0.2136455E+00
        -11   -1    0    0    0    0  0.00000000000E+00  0.00000000000E+00  0.50000499739E+01  0.50000500000E+01  0.51100000000E-03 0. -1.
         11   -1    0    0    0    0 -0.00000000000E+00 -0.00000000000E+00 -0.50000499739E+01  0.50000500000E+01  0.51100000000E-03 0.  1.
         50    1    1    2    0    0  0.17015605091E-01  0.54343671297E-02 -0.13451369346E-01  0.50000500000E+01  0.50000000000E+01 0.  0.
         50    1    1    2    0    0 -0.17015605091E-01 -0.54343671297E-02  0.13451369346E-01  0.50000500000E+01  0.50000000000E+01 0.  1.
</event>
<event>
 4    1  0.4944208E-021  0.5000050E+01  0.7818608E-02  0.2136455E+00
        -11   -1    0    0    0    0  0.00000000000E+00  0.00000000000E+00  0.50000499739E+01  0.50000500000E+01  0.51100000000E-03 0.  1.
         11   -1    0    0    0    0 -0.00000000000E+00 -0.00000000000E+00 -0.50000499739E+01  0.50000500000E+01  0.51100000000E-03 0. -1.
         50    1    1    2    0    0 -0.22057176862E-01 -0.36338706750E-02 -0.52766730658E-03  0.50000500000E+01  0.50000000000E+01 0.  1.
         50    1    1    2    0    0  0.22057176862E-01  0.36338706750E-02  0.52766730658E-03  0.50000500000E+01  0.50000000000E+01 0.  0.
</event>
<event>
 4    1  0.4944208E-021  0.5000050E+01  0.7818608E-02  0.2136455E+00
        -11   -1    0    0    0    0  0.00000000000E+00  0.00000000000E+00  0.50000499739E+01  0.50000500000E+01  0.51100000000E-03 0. -1.
         11   -1    0    0    0    0 -0.00000000000E+00 -0.00000000000E+00 -0.50000499739E+01  0.50000500000E+01  0.51100000000E-03 0.  1.
         50    1    1    2    0    0 -0.12327720259E-01  0.18185480793E-01  0.41615023176E-02  0.50000500000E+01  0.50000000000E+01 0.  0.
         50    1    1    2    0    0  0.12327720259E-01 -0.18185480793E-01 -0.41615023176E-02  0.50000500000E+01  0.50000000000E+01 0. -1.
</event>
<event>
 4    1  0.4944208E-021  0.5000050E+01  0.7818608E-02  0.2136455E+00
        -11   -1    0    0    0    0  0.00000000000E+00  0.00000000000E+00  0.50000499739E+01  0.50000500000E+01  0.51100000000E-03 0. -1.
         11   -1    0    0    0    0 -0.00000000000E+00 -0.00000000000E+00 -0.50000499739E+01  0.50000500000E+01  0.51100000000E-03 0.  1.
         50    1    1    2    0    0  0.13557304510E-01  0.14052813592E-01 -0.10895890261E-01  0.50000500000E+01  0.50000000000E+01 0.  1.
         50    1    1    2    0    0 -0.13557304510E-01 -0.14052813592E-01  0.10895890261E-01  0.50000500000E+01  0.50000000000E+01 0. -1.
</event>
<event>
 4    1  0.4944208E-021  0.5000050E+01  0.7818608E-02  0.2136455E+00
        -11   -1    0    0    0    0  0.00000000000E+00  0.00000000000E+00  0.50000499739E+01  0.50000500000E+01  0.51100000000E-03 0.  1.
         11   -1    0    0    0    0 -0.00000000000E+00 -0.00000000000E+00 -0.50000499739E+01  0.50000500000E+01  0.51100000000E-03 0. -1.
         50    1    1    2    0    0 -0.20754117253E-01  0.27032538801E-02  0.78715649960E-02  0.50000500000E+01  0.50000000000E+01 0.  0.
         50    1    1    2    0    0  0.20754117253E-01 -0.27032538801E-02 -0.78715649960E-02  0.50000500000E+01  0.50000000000E+01 0.  0.
</event>
<event>
 4    1  0.4944208E-021  0.5000050E+01  0.7818608E-02  0.2136455E+00
        -11   -1    0    0    0    0  0.00000000000E+00  0.00000000000E+00  0.50000499739E+01  0.50000500000E+01  0.51100000000E-03 0.  1.
         11   -1    0    0    0    0 -0.00000000000E+00 -0.00000000000E+00 -0.50000499739E+01  0.50000500000E+01  0.51100000000E-03 0. -1.
         50    1    1    2    0    0  0.71563725465E-02 -0.19744790627E-01  0.76767229392E-02  0.50000500000E+01  0.50000000000E+01 0.  0.
         50    1    1    2    0    0 -0.71563725465E-02  0.19744790627E-01 -0.76767229392E-02  0.50000500000E+01  0.50000000000E+01 0.  0.
</event>
<event>
 4    1  0.4944208E-021  0.5000050E+01  0.7818608E-02  0.2136455E+00
        -11   -1    0    0    0    0  0.00000000000E+00  0.00000000000E+00  0.50000499739E+01  0.50000500000E+01  0.51100000000E-03 0.  1.
         11   -1    0    0    0    0 -0.00000000000E+00 -0.00000000000E+00 -0.50000499739E+01  0.50000500000E+01  0.51100000000E-03 0. -1.
         50    1    1    2    0    0  0.43125439325E-02  0.10396771923E-01 -0.19321273209E-01  0.50000500000E+01  0.50000000000E+01 0. -1.
         50    1    1    2    0    0 -0.43125439325E-02 -0.10396771923E-01  0.19321273209E-01  0.50000500000E+01  0.50000000000E+01 0.  0.
</event>
<event>
 4    1  0.4944208E-021  0.5000050E+01  0.7818608E-02  0.2136455E+00
        -11   -1    0    0    0    0  0.00000000000E+00  0.00000000000E+00  0.50000499739E+01  0.50000500000E+01  0.51100000000E-03 0. -1.
         11   -1    0    0    0    0 -0.00000000000E+00 -0.00000000000E+00 -0.50000499739E+01  0.50000500000E+01  0.51100000000E-03 0.  1.
         50    1    1    2    0    0 -0.84119687640E-02  0.52183410626E-02  0.20050191971E-01  0.50000500000E+01  0.50000000000E+01 0.  0.
         50    1    1    2    0    0  0.84119687640E-02 -0.52183410626E-02 -0.20050191971E-01  0.50000500000E+01  0.50000000000E+01 0.  0.
</event>
<event>
 4    1  0.4944208E-021  0.5000050E+01  0.7818608E-02  0.2136455E+00
        -11   -1    0    0    0    0  0.00000000000E+00  0.00000000000E+00  0.50000499739E+01  0.50000500000E+01  0.51100000000E-03 0.  1.
         11   -1    0    0    0    0 -0.00000000000E+00 -0.00000000000E+00 -0.50000499739E+01  0.50000500000E+01  0.51100000000E-03 0. -1.
         50    1    1    2    0    0 -0.22290235700E-01 -0.81225633626E-03 -0.15773814004E-02  0.50000500000E+01  0.50000000000E+01 0. -1.
         50    1    1    2    0    0  0.22290235700E-01  0.81225633626E-03  0.15773814004E-02  0.50000500000E+01  0.50000000000E+01 0.  1.
</event>
<event>
 4    1  0.4944208E-021  0.5000050E+01  0.7818608E-02  0.2136455E+00
        -11   -1    0    0    0    0  0.00000000000E+00  0.00000000000E+00  0.50000499739E+01  0.50000500000E+01  0.51100000000E-03 0.  1.
         11   -1    0    0    0    0 -0.00000000000E+00 -0.00000000000E+00 -0.50000499739E+01  0.50000500000E+01  0.51100000000E-03 0. -1.
         50    1    1    2    0    0 -0.22144725634E-02  0.21083744633E-01  0.71115626641E-02  0.50000500000E+01  0.50000000000E+01 0. -1.
         50    1    1    2    0    0  0.22144725634E-02 -0.21083744633E-01 -0.71115626641E-02  0.50000500000E+01  0.50000000000E+01 0.  1.
</event>
<event>
 4    1  0.4944208E-021  0.5000050E+01  0.7818608E-02  0.2136455E+00
        -11   -1    0    0    0    0  0.00000000000E+00  0.00000000000E+00  0.50000499739E+01  0.50000500000E+01  0.51100000000E-03 0. -1.
         11   -1    0    0    0    0 -0.00000000000E+00 -0.00000000000E+00 -0.50000499739E+01  0.50000500000E+01  0.51100000000E-03 0.  1.
         50    1    1    2    0    0 -0.17907424601E-01  0.12413055794E-01 -0.50242103865E-02  0.50000500000E+01  0.50000000000E+01 0.  1.
         50    1    1    2    0    0  0.17907424601E-01 -0.12413055794E-01  0.50242103865E-02  0.50000500000E+01  0.50000000000E+01 0. -1.
</event>
<event>
 4    1  0.1761452E-020  0.5000050E+01  0.7818608E-02  0.2136455E+00
        -11   -1    0    0    0    0  0.00000000000E+00  0.00000000000E+00  0.50000499739E+01  0.50000500000E+01  0.51100000000E-03 0.  1.
         11   -1    0    0    0    0 -0.00000000000E+00 -0.00000000000E+00 -0.50000499739E+01  0.50000500000E+01  0.51100000000E-03 0. -1.
         50    1    1    2    0    0  0.48278704392E-03  0.43949405483E-02  0.21919258980E-01  0.50000500000E+01  0.50000000000E+01 0.  1.
         50    1    1    2    0    0 -0.48278704392E-03 -0.43949405483E-02 -0.21919258980E-01  0.50000500000E+01  0.50000000000E+01 0.  0.
</event>
<event>
 4    1  0.4944208E-021  0.5000050E+01  0.7818608E-02  0.2136455E+00
        -11   -1    0    0    0    0  0.00000000000E+00  0.00000000000E+00  0.50000499739E+01  0.50000500000E+01  0.51100000000E-03 0. -1.
         11   -1    0    0    0    0 -0.00000000000E+00 -0.00000000000E+00 -0.50000499739E+01  0.50000500000E+01  0.51100000000E-03 0.  1.
         50    1    1    2    0    0 -0.19193597208E-01  0.61003549627E-02 -0.97156572364E-02  0.50000500000E+01  0.50000000000E+01 0. -1.
         50    1    1    2    0    0  0.19193597208E-01 -0.61003549627E-02  0.97156572364E-02  0.50000500000E+01  0.50000000000E+01 0.  0.
</event>
<event>
 4    1  0.4944208E-021  0.5000050E+01  0.7818608E-02  0.2136455E+00
        -11   -1    0    0    0    0  0.00000000000E+00  0.00000000000E+00  0.50000499739E+01  0.50000500000E+01  0.51100000000E-03 0.  1.
         11   -1    0    0    0    0 -0.00000000000E+00 -0.00000000000E+00 -0.50000499739E+01  0.50000500000E+01  0.51100000000E-03 0. -1.
         50    1    1    2    0    0  0.56608477203E-02 -0.21482852175E-01 -0.25385754846E-02  0.50000500000E+01  0.50000000000E+01 0. -1.
         50    1    1    2    0    0 -0.56608477203E-02  0.21482852175E-01  0.25385754846E-02  0.50000500000E+01  0.50000000000E+01 0.  0.
</event>
<event>
 4    1  0.4944208E-021  0.5000050E+01  0.7818608E-02  0.2136455E+00
        -11   -1    0    0    0    0  0.00000000000E+00  0.00000000000E+00  0.50000499739E+01  0.50000500000E+01  0.51100000000E-03 0.  1.
         11   -1    0    0    0    0 -0.00000000000E+00 -0.00000000000E+00 -0.50000499739E+01  0.50000500000E+01  0.51100000000E-03 0. -1.
         50    1    1    2    0    0 -0.15733868280E-01 -0.15633450782E-01  0.28360369528E-02  0.50000500000E+01  0.50000000000E+01 0. -1.
         50    1    1    2    0    0  0.15733868280E-01  0.15633450782E-01 -0.28360369528E-02  0.50000500000E+01  0.50000000000E+01 0.  1.
</event>
<event>
 4    1  0.4944208E-021  0.5000050E+01  0.7818608E-02  0.2136455E+00
        -11   -1    0    0    0    0  0.00000000000E+00  0.00000000000E+00  0.50000499739E+01  0.50000500000E+01  0.51100000000E-03 0. -1.
         11   -1    0    0    0    0 -0.00000000000E+00 -0.00000000000E+00 -0.50000499739E+01  0.50000500000E+01  0.51100000000E-03 0.  1.
         50    1    1    2    0    0  0.83868374526E-02  0.18340593302E-01  0.96584726983E-02  0.50000500000E+01  0.50000000000E+01 0.  1.
         50    1    1    2    0    0 -0.83868374526E-02 -0.18340593302E-01 -0.96584726983E-02  0.50000500000E+01  0.50000000000E+01 0.  0.
</event>
<event>
 4    1  0.4944208E-021  0.5000050E+01  0.7818608E-02  0.2136455E+00
        -11   -1    0    0    0    0  0.00000000000E+00  0.00000000000E+00  0.50000499739E+01  0.50000500000E+01  0.51100000000E-03 0. -1.
         11   -1    0    0    0    0 -0.00000000000E+00 -0.00000000000E+00 -0.50000499739E+01  0.50000500000E+01  0.51100000000E-03 0.  1.
         50    1    1    2    0    0  0.10140236911E-01  0.19871116965E-01  0.15221057605E-02  0.50000500000E+01  0.50000000000E+01 0. -1.
         50    1    1    2    0    0 -0.10140236911E-01 -0.19871116965E-01 -0.15221057605E-02  0.50000500000E+01  0.50000000000E+01 0.  1.
</event>
<event>
 4    1  0.4944208E-021  0.5000050E+01  0.7818608E-02  0.2136455E+00
        -11   -1    0    0    0    0  0.00000000000E+00  0.00000000000E+00  0.50000499739E+01  0.50000500000E+01  0.51100000000E-03 0.  1.
         11   -1    0    0    0    0 -0.00000000000E+00 -0.00000000000E+00 -0.50000499739E+01  0.50000500000E+01  0.51100000000E-03 0. -1.
         50    1    1    2    0    0  0.54568228535E-02 -0.16699248433E-01 -0.13833317972E-01  0.50000500000E+01  0.50000000000E+01 0.  0.
         50    1    1    2    0    0 -0.54568228535E-02  0.16699248433E-01  0.13833317972E-01  0.50000500000E+01  0.50000000000E+01 0. -1.
</event>
<event>
 4    1  0.4944208E-021  0.5000050E+01  0.7818608E-02  0.2136455E+00
        -11   -1    0    0    0    0  0.00000000000E+00  0.00000000000E+00  0.50000499739E+01  0.50000500000E+01  0.51100000000E-03 0.  1.
         11   -1    0    0    0    0 -0.00000000000E+00 -0.00000000000E+00 -0.50000499739E+01  0.50000500000E+01  0.51100000000E-03 0. -1.
         50    1    1    2    0    0 -0.72509263838E-02  0.17309272244E-01  0.12157946412E-01  0.50000500000E+01  0.50000000000E+01 0.  1.
         50    1    1    2    0    0  0.72509263838E-02 -0.17309272244E-01 -0.12157946412E-01  0.50000500000E+01  0.50000000000E+01 0. -1.
</event>
<event>
 4    1  0.4944208E-021  0.5000050E+01  0.7818608E-02  0.2136455E+00
        -11   -1    0    0    0    0  0.00000000000E+00  0.00000000000E+00  0.50000499739E+01  0.50000500000E+01  0.51100000000E-03 0. -1.
         11   -1    0    0    0    0 -0.00000000000E+00 -0.00000000000E+00 -0.50000499739E+01  0.50000500000E+01  0.51100000000E-03 0.  1.
         50    1    1    2    0    0  0.14870809692E-02  0.20700235588E-01  0.83241418058E-02  0.50000500000E+01  0.50000000000E+01 0.  0.
         50    1    1    2    0    0 -0.14870809692E-02 -0.20700235588E-01 -0.83241418058E-02  0.50000500000E+01  0.50000000000E+01 0. -1.
</event>
<event>
 4    1  0.4944208E-021  0.5000050E+01  0.7818608E-02  0.2136455E+00
        -11   -1    0    0    0    0  0.00000000000E+00  0.00000000000E+00  0.50000499739E+01  0.50000500000E+01  0.51100000000E-03 0.  1.
         11   -1    0    0    0    0 -0.00000000000E+00 -0.00000000000E+00 -0.50000499739E+01  0.50000500000E+01  0.51100000000E-03 0. -1.
         50    1    1    2    0    0  0.13482588408E-01 -0.10432773171E-02 -0.17808253206E-01  0.50000500000E+01  0.50000000000E+01 0. -1.
         50    1    1    2    0    0 -0.13482588408E-01  0.10432773171E-02  0.17808253206E-01  0.50000500000E+01  0.50000000000E+01 0.  1.
</event>
<event>
 4    1  0.4944208E-021  0.5000050E+01  0.7818608E-02  0.2136455E+00
        -11   -1    0    0    0    0  0.00000000000E+00  0.00000000000E+00  0.50000499739E+01  0.50000500000E+01  0.51100000000E-03 0.  1.
         11   -1    0    0    0    0 -0.00000000000E+00 -0.00000000000E+00 -0.50000499739E+01  0.50000500000E+01  0.51100000000E-03 0. -1.
         50    1    1    2    0    0 -0.40186090540E-02  0.21168865864E-01 -0.59776583459E-02  0.50000500000E+01  0.50000000000E+01 0.  1.
         50    1    1    2    0    0  0.40186090540E-02 -0.21168865864E-01  0.59776583459E-02  0.50000500000E+01  0.50000000000E+01 0.  0.
</event>
<event>
 4    1  0.4944208E-021  0.5000050E+01  0.7818608E-02  0.2136455E+00
        -11   -1    0    0    0    0  0.00000000000E+00  0.00000000000E+00  0.50000499739E+01  0.50000500000E+01  0.51100000000E-03 0. -1.
         11   -1    0    0    0    0 -0.00000000000E+00 -0.00000000000E+00 -0.50000499739E+01  0.50000500000E+01  0.51100000000E-03 0.  1.
         50    1    1    2    0    0 -0.17923285108E-01 -0.13085028590E-01 -0.27459748219E-02  0.50000500000E+01  0.50000000000E+01 0.  0.
         50    1    1    2    0    0  0.17923285108E-01  0.13085028590E-01  0.27459748219E-02  0.50000500000E+01  0.50000000000E+01 0. -1.
</event>
<event>
 4    1  0.4944208E-021  0.5000050E+01  0.7818608E-02  0.2136455E+00
        -11   -1    0    0    0    0  0.00000000000E+00  0.00000000000E+00  0.50000499739E+01  0.50000500000E+01  0.51100000000E-03 0.  1.
         11   -1    0    0    0    0 -0.00000000000E+00 -0.00000000000E+00 -0.50000499739E+01  0.50000500000E+01  0.51100000000E-03 0. -1.
         50    1    1    2    0    0  0.14921531564E-01 -0.34518814231E-03 -0.16650262488E-01  0.50000500000E+01  0.50000000000E+01 0.  0.
         50    1    1    2    0    0 -0.14921531564E-01  0.34518814231E-03  0.16650262488E-01  0.50000500000E+01  0.50000000000E+01 0.  0.
</event>
<event>
 4    1  0.4944208E-021  0.5000050E+01  0.7818608E-02  0.2136455E+00
        -11   -1    0    0    0    0  0.00000000000E+00  0.00000000000E+00  0.50000499739E+01  0.50000500000E+01  0.51100000000E-03 0.  1.
         11   -1    0    0    0    0 -0.00000000000E+00 -0.00000000000E+00 -0.50000499739E+01  0.50000500000E+01  0.51100000000E-03 0. -1.
         50    1    1    2    0    0  0.60942489484E-02 -0.63477086931E-02  0.20556488613E-01  0.50000500000E+01  0.50000000000E+01 0.  1.
         50    1    1    2    0    0 -0.60942489484E-02  0.63477086931E-02 -0.20556488613E-01  0.50000500000E+01  0.50000000000E+01 0.  0.
</event>
<event>
 4    1  0.4944208E-021  0.5000050E+01  0.7818608E-02  0.2136455E+00
        -11   -1    0    0    0    0  0.00000000000E+00  0.00000000000E+00  0.50000499739E+01  0.50000500000E+01  0.51100000000E-03 0. -1.
         11   -1    0    0    0    0 -0.00000000000E+00 -0.00000000000E+00 -0.50000499739E+01  0.50000500000E+01  0.51100000000E-03 0.  1.
         50    1    1    2    0    0 -0.13359809758E-01 -0.16294182135E-01  0.74844914179E-02  0.50000500000E+01  0.50000000000E+01 0. -1.
         50    1    1    2    0    0  0.13359809758E-01  0.16294182135E-01 -0.74844914179E-02  0.50000500000E+01  0.50000000000E+01 0.  1.
</event>
<event>
 4    1  0.4944208E-021  0.5000050E+01  0.7818608E-02  0.2136455E+00
        -11   -1    0    0    0    0  0.00000000000E+00  0.00000000000E+00  0.50000499739E+01  0.50000500000E+01  0.51100000000E-03 0. -1.
         11   -1    0    0    0    0 -0.00000000000E+00 -0.00000000000E+00 -0.50000499739E+01  0.50000500000E+01  0.51100000000E-03 0.  1.
         50    1    1    2    0    0  0.28490590931E-02 -0.21677432629E-01  0.46876728679E-02  0.50000500000E+01  0.50000000000E+01 0. -1.
         50    1    1    2    0    0 -0.28490590931E-02  0.21677432629E-01 -0.46876728679E-02  0.50000500000E+01  0.50000000000E+01 0.  0.
</event>
<event>
 4    1  0.4944208E-021  0.5000050E+01  0.7818608E-02  0.2136455E+00
        -11   -1    0    0    0    0  0.00000000000E+00  0.00000000000E+00  0.50000499739E+01  0.50000500000E+01  0.51100000000E-03 0. -1.
         11   -1    0    0    0    0 -0.00000000000E+00 -0.00000000000E+00 -0.50000499739E+01  0.50000500000E+01  0.51100000000E-03 0.  1.
         50    1    1    2    0    0  0.12247789063E-01 -0.18252407845E-01  0.41041163374E-02  0.50000500000E+01  0.50000000000E+01 0. -1.
         50    1    1    2    0    0 -0.12247789063E-01  0.18252407845E-01 -0.41041163374E-02  0.50000500000E+01  0.50000000000E+01 0.  1.
</event>
<event>
 4    1  0.4944208E-021  0.5000050E+01  0.7818608E-02  0.2136455E+00
        -11   -1    0    0    0    0  0.00000000000E+00  0.00000000000E+00  0.50000499739E+01  0.50000500000E+01  0.51100000000E-03 0.  1.
         11   -1    0    0    0    0 -0.00000000000E+00 -0.00000000000E+00 -0.50000499739E+01  0.50000500000E+01  0.51100000000E-03 0. -1.
         50    1    1    2    0    0 -0.10430602848E-01  0.15886416060E-01 -0.11782478899E-01  0.50000500000E+01  0.50000000000E+01 0.  0.
         50    1    1    2    0    0  0.10430602848E-01 -0.15886416060E-01  0.11782478899E-01  0.50000500000E+01  0.50000000000E+01 0. -1.
</event>
<event>
 4    1  0.4944208E-021  0.5000050E+01  0.7818608E-02  0.2136455E+00
        -11   -1    0    0    0    0  0.00000000000E+00  0.00000000000E+00  0.50000499739E+01  0.50000500000E+01  0.51100000000E-03 0.  1.
         11   -1    0    0    0    0 -0.00000000000E+00 -0.00000000000E+00 -0.50000499739E+01  0.50000500000E+01  0.51100000000E-03 0. -1.
         50    1    1    2    0    0  0.98061985694E-02  0.72208847361E-02  0.18753660796E-01  0.50000500000E+01  0.50000000000E+01 0.  0.
         50    1    1    2    0    0 -0.98061985694E-02 -0.72208847361E-02 -0.18753660796E-01  0.50000500000E+01  0.50000000000E+01 0. -1.
</event>
<event>
 4    1  0.4944208E-021  0.5000050E+01  0.7818608E-02  0.2136455E+00
        -11   -1    0    0    0    0  0.00000000000E+00  0.00000000000E+00  0.50000499739E+01  0.50000500000E+01  0.51100000000E-03 0.  1.
         11   -1    0    0    0    0 -0.00000000000E+00 -0.00000000000E+00 -0.50000499739E+01  0.50000500000E+01  0.51100000000E-03 0. -1.
         50    1    1    2    0    0  0.76966386321E-02  0.20925064155E-01  0.17046829201E-02  0.50000500000E+01  0.50000000000E+01 0.  1.
         50    1    1    2    0    0 -0.76966386321E-02 -0.20925064155E-01 -0.17046829201E-02  0.50000500000E+01  0.50000000000E+01 0. -1.
</event>
<event>
 4    1  0.4944208E-021  0.5000050E+01  0.7818608E-02  0.2136455E+00
        -11   -1    0    0    0    0  0.00000000000E+00  0.00000000000E+00  0.50000499739E+01  0.50000500000E+01  0.51100000000E-03 0. -1.
         11   -1    0    0    0    0 -0.00000000000E+00 -0.00000000000E+00 -0.50000499739E+01  0.50000500000E+01  0.51100000000E-03 0.  1.
         50    1    1    2    0    0 -0.95352085169E-03 -0.13309306187E-01  0.17943123106E-01  0.50000500000E+01  0.50000000000E+01 0.  0.
         50    1    1    2    0    0  0.95352085169E-03  0.13309306187E-01 -0.17943123106E-01  0.50000500000E+01  0.50000000000E+01 0.  1.
</event>
<event>
 4    1  0.4944208E-021  0.5000050E+01  0.7818608E-02  0.2136455E+00
        -11   -1    0    0    0    0  0.00000000000E+00  0.00000000000E+00  0.50000499739E+01  0.50000500000E+01  0.51100000000E-03 0.  1.
         11   -1    0    0    0    0 -0.00000000000E+00 -0.00000000000E+00 -0.50000499739E+01  0.50000500000E+01  0.51100000000E-03 0. -1.
         50    1    1    2    0    0 -0.13397590169E-01  0.16888550232E-01  0.59400293530E-02  0.50000500000E+01  0.50000000000E+01 0.  1.
         50    1    1    2    0    0  0.13397590169E-01 -0.16888550232E-01 -0.59400293529E-02  0.50000500000E+01  0.50000000000E+01 0.  0.
</event>
<event>
 4    1  0.4944208E-021  0.5000050E+01  0.7818608E-02  0.2136455E+00
        -11   -1    0    0    0    0  0.00000000000E+00  0.00000000000E+00  0.50000499739E+01  0.50000500000E+01  0.51100000000E-03 0.  1.
         11   -1    0    0    0    0 -0.00000000000E+00 -0.00000000000E+00 -0.50000499739E+01  0.50000500000E+01  0.51100000000E-03 0. -1.
         50    1    1    2    0    0 -0.17178968854E-02  0.16964286350E-01  0.14465971068E-01  0.50000500000E+01  0.50000000000E+01 0.  1.
         50    1    1    2    0    0  0.17178968854E-02 -0.16964286350E-01 -0.14465971068E-01  0.50000500000E+01  0.50000000000E+01 0. -1.
</event>
<event>
 4    1  0.4944208E-021  0.5000050E+01  0.7818608E-02  0.2136455E+00
        -11   -1    0    0    0    0  0.00000000000E+00  0.00000000000E+00  0.50000499739E+01  0.50000500000E+01  0.51100000000E-03 0.  1.
         11   -1    0    0    0    0 -0.00000000000E+00 -0.00000000000E+00 -0.50000499739E+01  0.50000500000E+01  0.51100000000E-03 0. -1.
         50    1    1    2    0    0 -0.13899544502E-01 -0.15962328626E-01 -0.72117423309E-02  0.50000500000E+01  0.50000000000E+01 0. -1.
         50    1    1    2    0    0  0.13899544502E-01  0.15962328626E-01  0.72117423309E-02  0.50000500000E+01  0.50000000000E+01 0.  1.
</event>
<event>
 4    1  0.4944208E-021  0.5000050E+01  0.7818608E-02  0.2136455E+00
        -11   -1    0    0    0    0  0.00000000000E+00  0.00000000000E+00  0.50000499739E+01  0.50000500000E+01  0.51100000000E-03 0.  1.
         11   -1    0    0    0    0 -0.00000000000E+00 -0.00000000000E+00 -0.50000499739E+01  0.50000500000E+01  0.51100000000E-03 0. -1.
         50    1    1    2    0    0  0.15840549237E-01  0.15133205120E-01 -0.44794645514E-02  0.50000500000E+01  0.50000000000E+01 0.  0.
         50    1    1    2    0    0 -0.15840549237E-01 -0.15133205120E-01  0.44794645514E-02  0.50000500000E+01  0.50000000000E+01 0. -1.
</event>
<event>
 4    1  0.4944208E-021  0.5000050E+01  0.7818608E-02  0.2136455E+00
        -11   -1    0    0    0    0  0.00000000000E+00  0.00000000000E+00  0.50000499739E+01  0.50000500000E+01  0.51100000000E-03 0.  1.
         11   -1    0    0    0    0 -0.00000000000E+00 -0.00000000000E+00 -0.50000499739E+01  0.50000500000E+01  0.51100000000E-03 0. -1.
         50    1    1    2    0    0  0.96134794684E-02  0.17510207708E-01 -0.10048688399E-01  0.50000500000E+01  0.50000000000E+01 0.  0.
         50    1    1    2    0    0 -0.96134794684E-02 -0.17510207708E-01  0.10048688399E-01  0.50000500000E+01  0.50000000000E+01 0.  0.
</event>
<event>
 4    1  0.4944208E-021  0.5000050E+01  0.7818608E-02  0.2136455E+00
        -11   -1    0    0    0    0  0.00000000000E+00  0.00000000000E+00  0.50000499739E+01  0.50000500000E+01  0.51100000000E-03 0.  1.
         11   -1    0    0    0    0 -0.00000000000E+00 -0.00000000000E+00 -0.50000499739E+01  0.50000500000E+01  0.51100000000E-03 0. -1.
         50    1    1    2    0    0  0.21656884570E-01 -0.43527371854E-02 -0.34692260981E-02  0.50000500000E+01  0.50000000000E+01 0. -1.
         50    1    1    2    0    0 -0.21656884570E-01  0.43527371854E-02  0.34692260981E-02  0.50000500000E+01  0.50000000000E+01 0.  0.
</event>
<event>
 4    1  0.4944208E-021  0.5000050E+01  0.7818608E-02  0.2136455E+00
        -11   -1    0    0    0    0  0.00000000000E+00  0.00000000000E+00  0.50000499739E+01  0.50000500000E+01  0.51100000000E-03 0. -1.
         11   -1    0    0    0    0 -0.00000000000E+00 -0.00000000000E+00 -0.50000499739E+01  0.50000500000E+01  0.51100000000E-03 0.  1.
         50    1    1    2    0    0  0.87415716859E-02 -0.46794826636E-02  0.20042202136E-01  0.50000500000E+01  0.50000000000E+01 0.  0.
         50    1    1    2    0    0 -0.87415716859E-02  0.46794826636E-02 -0.20042202136E-01  0.50000500000E+01  0.50000000000E+01 0.  1.
</event>
<event>
 4    1  0.4944208E-021  0.5000050E+01  0.7818608E-02  0.2136455E+00
        -11   -1    0    0    0    0  0.00000000000E+00  0.00000000000E+00  0.50000499739E+01  0.50000500000E+01  0.51100000000E-03 0. -1.
         11   -1    0    0    0    0 -0.00000000000E+00 -0.00000000000E+00 -0.50000499739E+01  0.50000500000E+01  0.51100000000E-03 0.  1.
         50    1    1    2    0    0  0.20262424479E-01 -0.73363499702E-02 -0.59677988678E-02  0.50000500000E+01  0.50000000000E+01 0.  1.
         50    1    1    2    0    0 -0.20262424479E-01  0.73363499702E-02  0.59677988678E-02  0.50000500000E+01  0.50000000000E+01 0. -1.
</event>
<event>
 4    1  0.4944208E-021  0.5000050E+01  0.7818608E-02  0.2136455E+00
        -11   -1    0    0    0    0  0.00000000000E+00  0.00000000000E+00  0.50000499739E+01  0.50000500000E+01  0.51100000000E-03 0. -1.
         11   -1    0    0    0    0 -0.00000000000E+00 -0.00000000000E+00 -0.50000499739E+01  0.50000500000E+01  0.51100000000E-03 0.  1.
         50    1    1    2    0    0 -0.70108298096E-02  0.31609874777E-02 -0.20996640768E-01  0.50000500000E+01  0.50000000000E+01 0.  0.
         50    1    1    2    0    0  0.70108298096E-02 -0.31609874777E-02  0.20996640768E-01  0.50000500000E+01  0.50000000000E+01 0.  0.
</event>
<event>
 4    1  0.4944208E-021  0.5000050E+01  0.7818608E-02  0.2136455E+00
        -11   -1    0    0    0    0  0.00000000000E+00  0.00000000000E+00  0.50000499739E+01  0.50000500000E+01  0.51100000000E-03 0.  1.
         11   -1    0    0    0    0 -0.00000000000E+00 -0.00000000000E+00 -0.50000499739E+01  0.50000500000E+01  0.51100000000E-03 0. -1.
         50    1    1    2    0    0  0.56207216441E-02  0.26013683838E-02 -0.21485876075E-01  0.50000500000E+01  0.50000000000E+01 0.  0.
         50    1    1    2    0    0 -0.56207216441E-02 -0.26013683838E-02  0.21485876075E-01  0.50000500000E+01  0.50000000000E+01 0.  0.
</event>
<event>
 4    1  0.4944208E-021  0.5000050E+01  0.7818608E-02  0.2136455E+00
        -11   -1    0    0    0    0  0.00000000000E+00  0.00000000000E+00  0.50000499739E+01  0.50000500000E+01  0.51100000000E-03 0.  1.
         11   -1    0    0    0    0 -0.00000000000E+00 -0.00000000000E+00 -0.50000499739E+01  0.50000500000E+01  0.51100000000E-03 0. -1.
         50    1    1    2    0    0 -0.72127911325E-02 -0.18747028541E-02  0.21082306166E-01  0.50000500000E+01  0.50000000000E+01 0.  1.
         50    1    1    2    0    0  0.72127911325E-02  0.18747028541E-02 -0.21082306166E-01  0.50000500000E+01  0.50000000000E+01 0.  0.
</event>
<event>
 4    1  0.4944208E-021  0.5000050E+01  0.7818608E-02  0.2136455E+00
        -11   -1    0    0    0    0  0.00000000000E+00  0.00000000000E+00  0.50000499739E+01  0.50000500000E+01  0.51100000000E-03 0.  1.
         11   -1    0    0    0    0 -0.00000000000E+00 -0.00000000000E+00 -0.50000499739E+01  0.50000500000E+01  0.51100000000E-03 0. -1.
         50    1    1    2    0    0  0.45893577934E-02 -0.14941449759E-01  0.15990415071E-01  0.50000500000E+01  0.50000000000E+01 0.  0.
         50    1    1    2    0    0 -0.45893577934E-02  0.14941449759E-01 -0.15990415071E-01  0.50000500000E+01  0.50000000000E+01 0.  0.
</event>
<event>
 4    1  0.4944208E-021  0.5000050E+01  0.7818608E-02  0.2136455E+00
        -11   -1    0    0    0    0  0.00000000000E+00  0.00000000000E+00  0.50000499739E+01  0.50000500000E+01  0.51100000000E-03 0. -1.
         11   -1    0    0    0    0 -0.00000000000E+00 -0.00000000000E+00 -0.50000499739E+01  0.50000500000E+01  0.51100000000E-03 0.  1.
         50    1    1    2    0    0 -0.68071051480E-02  0.15559859286E-01  0.14544985338E-01  0.50000500000E+01  0.50000000000E+01 0.  0.
         50    1    1    2    0    0  0.68071051480E-02 -0.15559859286E-01 -0.14544985338E-01  0.50000500000E+01  0.50000000000E+01 0.  0.
</event>
<event>
 4    1  0.4944208E-021  0.5000050E+01  0.7818608E-02  0.2136455E+00
        -11   -1    0    0    0    0  0.00000000000E+00  0.00000000000E+00  0.50000499739E+01  0.50000500000E+01  0.51100000000E-03 0. -1.
         11   -1    0    0    0    0 -0.00000000000E+00 -0.00000000000E+00 -0.50000499739E+01  0.50000500000E+01  0.51100000000E-03 0.  1.
         50    1    1    2    0    0 -0.11490005361E-01  0.17265120793E-01 -0.83604952473E-02  0.50000500000E+01  0.50000000000E+01 0.  1.
         50    1    1    2    0    0  0.11490005361E-01 -0.17265120793E-01  0.83604952473E-02  0.50000500000E+01  0.50000000000E+01 0. -1.
</event>
<event>
 4    1  0.4944208E-021  0.5000050E+01  0.7818608E-02  0.2136455E+00
        -11   -1    0    0    0    0  0.00000000000E+00  0.00000000000E+00  0.50000499739E+01  0.50000500000E+01  0.51100000000E-03 0. -1.
         11   -1    0    0    0    0 -0.00000000000E+00 -0.00000000000E+00 -0.50000499739E+01  0.50000500000E+01  0.51100000000E-03 0.  1.
         50    1    1    2    0    0  0.98684438866E-02 -0.18602253397E-01 -0.75214681942E-02  0.50000500000E+01  0.50000000000E+01 0.  1.
         50    1    1    2    0    0 -0.98684438866E-02  0.18602253397E-01  0.75214681942E-02  0.50000500000E+01  0.50000000000E+01 0. -1.
</event>
<event>
 4    1  0.4944208E-021  0.5000050E+01  0.7818608E-02  0.2136455E+00
        -11   -1    0    0    0    0  0.00000000000E+00  0.00000000000E+00  0.50000499739E+01  0.50000500000E+01  0.51100000000E-03 0. -1.
         11   -1    0    0    0    0 -0.00000000000E+00 -0.00000000000E+00 -0.50000499739E+01  0.50000500000E+01  0.51100000000E-03 0.  1.
         50    1    1    2    0    0 -0.18161614214E-01  0.12903416397E-01  0.19131425525E-02  0.50000500000E+01  0.50000000000E+01 0. -1.
         50    1    1    2    0    0  0.18161614214E-01 -0.12903416397E-01 -0.19131425525E-02  0.50000500000E+01  0.50000000000E+01 0.  1.
</event>
<event>
 4    1  0.4944208E-021  0.5000050E+01  0.7818608E-02  0.2136455E+00
        -11   -1    0    0    0    0  0.00000000000E+00  0.00000000000E+00  0.50000499739E+01  0.50000500000E+01  0.51100000000E-03 0. -1.
         11   -1    0    0    0    0 -0.00000000000E+00 -0.00000000000E+00 -0.50000499739E+01  0.50000500000E+01  0.51100000000E-03 0.  1.
         50    1    1    2    0    0 -0.19882020091E-01 -0.16149595172E-02 -0.10104438770E-01  0.50000500000E+01  0.50000000000E+01 0.  0.
         50    1    1    2    0    0  0.19882020091E-01  0.16149595172E-02  0.10104438770E-01  0.50000500000E+01  0.50000000000E+01 0.  0.
</event>
<event>
 4    1  0.4944208E-021  0.5000050E+01  0.7818608E-02  0.2136455E+00
        -11   -1    0    0    0    0  0.00000000000E+00  0.00000000000E+00  0.50000499739E+01  0.50000500000E+01  0.51100000000E-03 0. -1.
         11   -1    0    0    0    0 -0.00000000000E+00 -0.00000000000E+00 -0.50000499739E+01  0.50000500000E+01  0.51100000000E-03 0.  1.
         50    1    1    2    0    0  0.55098153563E-02  0.81929615289E-02  0.20062896504E-01  0.50000500000E+01  0.50000000000E+01 0. -1.
         50    1    1    2    0    0 -0.55098153563E-02 -0.81929615289E-02 -0.20062896504E-01  0.50000500000E+01  0.50000000000E+01 0.  0.
</event>
<event>
 4    1  0.4944208E-021  0.5000050E+01  0.7818608E-02  0.2136455E+00
        -11   -1    0    0    0    0  0.00000000000E+00  0.00000000000E+00  0.50000499739E+01  0.50000500000E+01  0.51100000000E-03 0.  1.
         11   -1    0    0    0    0 -0.00000000000E+00 -0.00000000000E+00 -0.50000499739E+01  0.50000500000E+01  0.51100000000E-03 0. -1.
         50    1    1    2    0    0 -0.63939830825E-02 -0.18600154125E-01  0.10637374998E-01  0.50000500000E+01  0.50000000000E+01 0.  0.
         50    1    1    2    0    0  0.63939830825E-02  0.18600154125E-01 -0.10637374998E-01  0.50000500000E+01  0.50000000000E+01 0.  1.
</event>
<event>
 4    1  0.4944208E-021  0.5000050E+01  0.7818608E-02  0.2136455E+00
        -11   -1    0    0    0    0  0.00000000000E+00  0.00000000000E+00  0.50000499739E+01  0.50000500000E+01  0.51100000000E-03 0. -1.
         11   -1    0    0    0    0 -0.00000000000E+00 -0.00000000000E+00 -0.50000499739E+01  0.50000500000E+01  0.51100000000E-03 0.  1.
         50    1    1    2    0    0 -0.10092366746E-01  0.19392191480E-01  0.46999513880E-02  0.50000500000E+01  0.50000000000E+01 0.  1.
         50    1    1    2    0    0  0.10092366746E-01 -0.19392191480E-01 -0.46999513880E-02  0.50000500000E+01  0.50000000000E+01 0. -1.
</event>
<event>
 4    1  0.4944208E-021  0.5000050E+01  0.7818608E-02  0.2136455E+00
        -11   -1    0    0    0    0  0.00000000000E+00  0.00000000000E+00  0.50000499739E+01  0.50000500000E+01  0.51100000000E-03 0.  1.
         11   -1    0    0    0    0 -0.00000000000E+00 -0.00000000000E+00 -0.50000499739E+01  0.50000500000E+01  0.51100000000E-03 0. -1.
         50    1    1    2    0    0 -0.55873981529E-02 -0.57208383031E-02 -0.20881941744E-01  0.50000500000E+01  0.50000000000E+01 0.  0.
         50    1    1    2    0    0  0.55873981529E-02  0.57208383031E-02  0.20881941744E-01  0.50000500000E+01  0.50000000000E+01 0.  1.
</event>
<event>
 4    1  0.4944208E-021  0.5000050E+01  0.7818608E-02  0.2136455E+00
        -11   -1    0    0    0    0  0.00000000000E+00  0.00000000000E+00  0.50000499739E+01  0.50000500000E+01  0.51100000000E-03 0. -1.
         11   -1    0    0    0    0 -0.00000000000E+00 -0.00000000000E+00 -0.50000499739E+01  0.50000500000E+01  0.51100000000E-03 0.  1.
         50    1    1    2    0    0  0.91087581632E-03  0.20549332228E-01 -0.87691362298E-02  0.50000500000E+01  0.50000000000E+01 0. -1.
         50    1    1    2    0    0 -0.91087581632E-03 -0.20549332228E-01  0.87691362298E-02  0.50000500000E+01  0.50000000000E+01 0.  0.
</event>
<event>
 4    1  0.4944208E-021  0.5000050E+01  0.7818608E-02  0.2136455E+00
        -11   -1    0    0    0    0  0.00000000000E+00  0.00000000000E+00  0.50000499739E+01  0.50000500000E+01  0.51100000000E-03 0. -1.
         11   -1    0    0    0    0 -0.00000000000E+00 -0.00000000000E+00 -0.50000499739E+01  0.50000500000E+01  0.51100000000E-03 0.  1.
         50    1    1    2    0    0  0.15491783557E-01 -0.52807026585E-02  0.15235528269E-01  0.50000500000E+01  0.50000000000E+01 0.  1.
         50    1    1    2    0    0 -0.15491783557E-01  0.52807026585E-02 -0.15235528269E-01  0.50000500000E+01  0.50000000000E+01 0.  1.
</event>
<event>
 4    1  0.4944208E-021  0.5000050E+01  0.7818608E-02  0.2136455E+00
        -11   -1    0    0    0    0  0.00000000000E+00  0.00000000000E+00  0.50000499739E+01  0.50000500000E+01  0.51100000000E-03 0.  1.
         11   -1    0    0    0    0 -0.00000000000E+00 -0.00000000000E+00 -0.50000499739E+01  0.50000500000E+01  0.51100000000E-03 0. -1.
         50    1    1    2    0    0 -0.19746568082E-01  0.10490747877E-01  0.14056308520E-03  0.50000500000E+01  0.50000000000E+01 0. -1.
         50    1    1    2    0    0  0.19746568082E-01 -0.10490747877E-01 -0.14056308520E-03  0.50000500000E+01  0.50000000000E+01 0.  1.
</event>
<event>
 4    1  0.4944208E-021  0.5000050E+01  0.7818608E-02  0.2136455E+00
        -11   -1    0    0    0    0  0.00000000000E+00  0.00000000000E+00  0.50000499739E+01  0.50000500000E+01  0.51100000000E-03 0.  1.
         11   -1    0    0    0    0 -0.00000000000E+00 -0.00000000000E+00 -0.50000499739E+01  0.50000500000E+01  0.51100000000E-03 0. -1.
         50    1    1    2    0    0 -0.78836762367E-02 -0.18985743036E-01  0.87972558425E-02  0.50000500000E+01  0.50000000000E+01 0.  0.
         50    1    1    2    0    0  0.78836762367E-02  0.18985743036E-01 -0.87972558425E-02  0.50000500000E+01  0.50000000000E+01 0.  1.
</event>
<event>
 4    1  0.4944208E-021  0.5000050E+01  0.7818608E-02  0.2136455E+00
        -11   -1    0    0    0    0  0.00000000000E+00  0.00000000000E+00  0.50000499739E+01  0.50000500000E+01  0.51100000000E-03 0. -1.
         11   -1    0    0    0    0 -0.00000000000E+00 -0.00000000000E+00 -0.50000499739E+01  0.50000500000E+01  0.51100000000E-03 0.  1.
         50    1    1    2    0    0 -0.12274390324E-01  0.10855105590E-01 -0.15215404194E-01  0.50000500000E+01  0.50000000000E+01 0.  1.
         50    1    1    2    0    0  0.12274390324E-01 -0.10855105590E-01  0.15215404194E-01  0.50000500000E+01  0.50000000000E+01 0. -1.
</event>
<event>
 4    1  0.4944208E-021  0.5000050E+01  0.7818608E-02  0.2136455E+00
        -11   -1    0    0    0    0  0.00000000000E+00  0.00000000000E+00  0.50000499739E+01  0.50000500000E+01  0.51100000000E-03 0. -1.
         11   -1    0    0    0    0 -0.00000000000E+00 -0.00000000000E+00 -0.50000499739E+01  0.50000500000E+01  0.51100000000E-03 0.  1.
         50    1    1    2    0    0  0.17331616389E-01  0.12758816476E-01 -0.60687869858E-02  0.50000500000E+01  0.50000000000E+01 0. -1.
         50    1    1    2    0    0 -0.17331616389E-01 -0.12758816476E-01  0.60687869858E-02  0.50000500000E+01  0.50000000000E+01 0.  0.
</event>
<event>
 4    1  0.4944208E-021  0.5000050E+01  0.7818608E-02  0.2136455E+00
        -11   -1    0    0    0    0  0.00000000000E+00  0.00000000000E+00  0.50000499739E+01  0.50000500000E+01  0.51100000000E-03 0.  1.
         11   -1    0    0    0    0 -0.00000000000E+00 -0.00000000000E+00 -0.50000499739E+01  0.50000500000E+01  0.51100000000E-03 0. -1.
         50    1    1    2    0    0  0.96516322813E-02 -0.18919293923E-01 -0.69934835200E-02  0.50000500000E+01  0.50000000000E+01 0.  0.
         50    1    1    2    0    0 -0.96516322813E-02  0.18919293923E-01  0.69934835200E-02  0.50000500000E+01  0.50000000000E+01 0. -1.
</event>
<event>
 4    1  0.4944208E-021  0.5000050E+01  0.7818608E-02  0.2136455E+00
        -11   -1    0    0    0    0  0.00000000000E+00  0.00000000000E+00  0.50000499739E+01  0.50000500000E+01  0.51100000000E-03 0.  1.
         11   -1    0    0    0    0 -0.00000000000E+00 -0.00000000000E+00 -0.50000499739E+01  0.50000500000E+01  0.51100000000E-03 0. -1.
         50    1    1    2    0    0  0.76542535401E-02  0.19996423912E-01  0.64465443047E-02  0.50000500000E+01  0.50000000000E+01 0.  1.
         50    1    1    2    0    0 -0.76542535401E-02 -0.19996423912E-01 -0.64465443047E-02  0.50000500000E+01  0.50000000000E+01 0. -1.
</event>
<event>
 4    1  0.4944208E-021  0.5000050E+01  0.7818608E-02  0.2136455E+00
        -11   -1    0    0    0    0  0.00000000000E+00  0.00000000000E+00  0.50000499739E+01  0.50000500000E+01  0.51100000000E-03 0.  1.
         11   -1    0    0    0    0 -0.00000000000E+00 -0.00000000000E+00 -0.50000499739E+01  0.50000500000E+01  0.51100000000E-03 0. -1.
         50    1    1    2    0    0 -0.17736154592E-01  0.76293993976E-02  0.11279343292E-01  0.50000500000E+01  0.50000000000E+01 0.  1.
         50    1    1    2    0    0  0.17736154592E-01 -0.76293993976E-02 -0.11279343292E-01  0.50000500000E+01  0.50000000000E+01 0. -1.
</event>
<event>
 4    1  0.4944208E-021  0.5000050E+01  0.7818608E-02  0.2136455E+00
        -11   -1    0    0    0    0  0.00000000000E+00  0.00000000000E+00  0.50000499739E+01  0.50000500000E+01  0.51100000000E-03 0.  1.
         11   -1    0    0    0    0 -0.00000000000E+00 -0.00000000000E+00 -0.50000499739E+01  0.50000500000E+01  0.51100000000E-03 0. -1.
         50    1    1    2    0    0 -0.84262215826E-02 -0.12895913402E-01  0.16207921130E-01  0.50000500000E+01  0.50000000000E+01 0.  0.
         50    1    1    2    0    0  0.84262215826E-02  0.12895913402E-01 -0.16207921130E-01  0.50000500000E+01  0.50000000000E+01 0. -1.
</event>
<event>
 4    1  0.4944208E-021  0.5000050E+01  0.7818608E-02  0.2136455E+00
        -11   -1    0    0    0    0  0.00000000000E+00  0.00000000000E+00  0.50000499739E+01  0.50000500000E+01  0.51100000000E-03 0.  1.
         11   -1    0    0    0    0 -0.00000000000E+00 -0.00000000000E+00 -0.50000499739E+01  0.50000500000E+01  0.51100000000E-03 0. -1.
         50    1    1    2    0    0  0.43689671656E-02 -0.15800704715E-01  0.15206983804E-01  0.50000500000E+01  0.50000000000E+01 0.  1.
         50    1    1    2    0    0 -0.43689671656E-02  0.15800704715E-01 -0.15206983804E-01  0.50000500000E+01  0.50000000000E+01 0. -1.
</event>
<event>
 4    1  0.4944208E-021  0.5000050E+01  0.7818608E-02  0.2136455E+00
        -11   -1    0    0    0    0  0.00000000000E+00  0.00000000000E+00  0.50000499739E+01  0.50000500000E+01  0.51100000000E-03 0.  1.
         11   -1    0    0    0    0 -0.00000000000E+00 -0.00000000000E+00 -0.50000499739E+01  0.50000500000E+01  0.51100000000E-03 0. -1.
         50    1    1    2    0    0  0.21562156725E-01 -0.27847687707E-03  0.59159401615E-02  0.50000500000E+01  0.50000000000E+01 0. -1.
         50    1    1    2    0    0 -0.21562156725E-01  0.27847687707E-03 -0.59159401615E-02  0.50000500000E+01  0.50000000000E+01 0. -1.
</event>
<event>
 4    1  0.4944208E-021  0.5000050E+01  0.7818608E-02  0.2136455E+00
        -11   -1    0    0    0    0  0.00000000000E+00  0.00000000000E+00  0.50000499739E+01  0.50000500000E+01  0.51100000000E-03 0.  1.
         11   -1    0    0    0    0 -0.00000000000E+00 -0.00000000000E+00 -0.50000499739E+01  0.50000500000E+01  0.51100000000E-03 0. -1.
         50    1    1    2    0    0  0.17061697388E-01 -0.13173234788E-01  0.59470049155E-02  0.50000500000E+01  0.50000000000E+01 0.  0.
         50    1    1    2    0    0 -0.17061697388E-01  0.13173234788E-01 -0.59470049155E-02  0.50000500000E+01  0.50000000000E+01 0.  0.
</event>
<event>
 4    1  0.4944208E-021  0.5000050E+01  0.7818608E-02  0.2136455E+00
        -11   -1    0    0    0    0  0.00000000000E+00  0.00000000000E+00  0.50000499739E+01  0.50000500000E+01  0.51100000000E-03 0.  1.
         11   -1    0    0    0    0 -0.00000000000E+00 -0.00000000000E+00 -0.50000499739E+01  0.50000500000E+01  0.51100000000E-03 0. -1.
         50    1    1    2    0    0 -0.20008261376E-01 -0.65923214606E-02  0.74975512317E-02  0.50000500000E+01  0.50000000000E+01 0. -1.
         50    1    1    2    0    0  0.20008261376E-01  0.65923214606E-02 -0.74975512317E-02  0.50000500000E+01  0.50000000000E+01 0.  0.
</event>
<event>
 4    1  0.4944208E-021  0.5000050E+01  0.7818608E-02  0.2136455E+00
        -11   -1    0    0    0    0  0.00000000000E+00  0.00000000000E+00  0.50000499739E+01  0.50000500000E+01  0.51100000000E-03 0. -1.
         11   -1    0    0    0    0 -0.00000000000E+00 -0.00000000000E+00 -0.50000499739E+01  0.50000500000E+01  0.51100000000E-03 0.  1.
         50    1    1    2    0    0 -0.18579319844E-01  0.11924337702E-01  0.35526813098E-02  0.50000500000E+01  0.50000000000E+01 0. -1.
         50    1    1    2    0    0  0.18579319844E-01 -0.11924337702E-01 -0.35526813098E-02  0.50000500000E+01  0.50000000000E+01 0.  0.
</event>
<event>
 4    1  0.4944208E-021  0.5000050E+01  0.7818608E-02  0.2136455E+00
        -11   -1    0    0    0    0  0.00000000000E+00  0.00000000000E+00  0.50000499739E+01  0.50000500000E+01  0.51100000000E-03 0. -1.
         11   -1    0    0    0    0 -0.00000000000E+00 -0.00000000000E+00 -0.50000499739E+01  0.50000500000E+01  0.51100000000E-03 0.  1.
         50    1    1    2    0    0  0.11006952195E-02  0.81089852933E-02 -0.20809500896E-01  0.50000500000E+01  0.50000000000E+01 0.  1.
         50    1    1    2    0    0 -0.11006952195E-02 -0.81089852933E-02  0.20809500896E-01  0.50000500000E+01  0.50000000000E+01 0.  0.
</event>
<event>
 4    1  0.4944208E-021  0.5000050E+01  0.7818608E-02  0.2136455E+00
        -11   -1    0    0    0    0  0.00000000000E+00  0.00000000000E+00  0.50000499739E+01  0.50000500000E+01  0.51100000000E-03 0. -1.
         11   -1    0    0    0    0 -0.00000000000E+00 -0.00000000000E+00 -0.50000499739E+01  0.50000500000E+01  0.51100000000E-03 0.  1.
         50    1    1    2    0    0  0.11555897901E-01 -0.13396640323E-01 -0.13674565871E-01  0.50000500000E+01  0.50000000000E+01 0. -1.
         50    1    1    2    0    0 -0.11555897901E-01  0.13396640323E-01  0.13674565871E-01  0.50000500000E+01  0.50000000000E+01 0. -1.
</event>
<event>
 4    1  0.4944208E-021  0.5000050E+01  0.7818608E-02  0.2136455E+00
        -11   -1    0    0    0    0  0.00000000000E+00  0.00000000000E+00  0.50000499739E+01  0.50000500000E+01  0.51100000000E-03 0. -1.
         11   -1    0    0    0    0 -0.00000000000E+00 -0.00000000000E+00 -0.50000499739E+01  0.50000500000E+01  0.51100000000E-03 0.  1.
         50    1    1    2    0    0  0.18571333679E-01  0.11669581026E-01  0.43507406324E-02  0.50000500000E+01  0.50000000000E+01 0.  1.
         50    1    1    2    0    0 -0.18571333679E-01 -0.11669581026E-01 -0.43507406324E-02  0.50000500000E+01  0.50000000000E+01 0. -1.
</event>
<event>
 4    1  0.4944208E-021  0.5000050E+01  0.7818608E-02  0.2136455E+00
        -11   -1    0    0    0    0  0.00000000000E+00  0.00000000000E+00  0.50000499739E+01  0.50000500000E+01  0.51100000000E-03 0. -1.
         11   -1    0    0    0    0 -0.00000000000E+00 -0.00000000000E+00 -0.50000499739E+01  0.50000500000E+01  0.51100000000E-03 0.  1.
         50    1    1    2    0    0 -0.21423658634E-01 -0.15570639047E-02  0.62132843737E-02  0.50000500000E+01  0.50000000000E+01 0.  1.
         50    1    1    2    0    0  0.21423658634E-01  0.15570639047E-02 -0.62132843737E-02  0.50000500000E+01  0.50000000000E+01 0.  0.
</event>
<event>
 4    1  0.4944208E-021  0.5000050E+01  0.7818608E-02  0.2136455E+00
        -11   -1    0    0    0    0  0.00000000000E+00  0.00000000000E+00  0.50000499739E+01  0.50000500000E+01  0.51100000000E-03 0.  1.
         11   -1    0    0    0    0 -0.00000000000E+00 -0.00000000000E+00 -0.50000499739E+01  0.50000500000E+01  0.51100000000E-03 0. -1.
         50    1    1    2    0    0 -0.20238386594E-01  0.89501375507E-03  0.94662114096E-02  0.50000500000E+01  0.50000000000E+01 0.  0.
         50    1    1    2    0    0  0.20238386594E-01 -0.89501375507E-03 -0.94662114096E-02  0.50000500000E+01  0.50000000000E+01 0.  1.
</event>
<event>
 4    1  0.4944208E-021  0.5000050E+01  0.7818608E-02  0.2136455E+00
        -11   -1    0    0    0    0  0.00000000000E+00  0.00000000000E+00  0.50000499739E+01  0.50000500000E+01  0.51100000000E-03 0. -1.
         11   -1    0    0    0    0 -0.00000000000E+00 -0.00000000000E+00 -0.50000499739E+01  0.50000500000E+01  0.51100000000E-03 0.  1.
         50    1    1    2    0    0  0.69059217929E-04 -0.12571115324E-01 -0.18492290024E-01  0.50000500000E+01  0.50000000000E+01 0.  1.
         50    1    1    2    0    0 -0.69059217929E-04  0.12571115324E-01  0.18492290024E-01  0.50000500000E+01  0.50000000000E+01 0.  0.
</event>
<event>
 4    1  0.4944208E-021  0.5000050E+01  0.7818608E-02  0.2136455E+00
        -11   -1    0    0    0    0  0.00000000000E+00  0.00000000000E+00  0.50000499739E+01  0.50000500000E+01  0.51100000000E-03 0.  1.
         11   -1    0    0    0    0 -0.00000000000E+00 -0.00000000000E+00 -0.50000499739E+01  0.50000500000E+01  0.51100000000E-03 0. -1.
         50    1    1    2    0    0  0.86287409376E-02 -0.88426388221E-02  0.18637464111E-01  0.50000500000E+01  0.50000000000E+01 0.  0.
         50    1    1    2    0    0 -0.86287409376E-02  0.88426388221E-02 -0.18637464111E-01  0.50000500000E+01  0.50000000000E+01 0. -1.
</event>
<event>
 4    1  0.4944208E-021  0.5000050E+01  0.7818608E-02  0.2136455E+00
        -11   -1    0    0    0    0  0.00000000000E+00  0.00000000000E+00  0.50000499739E+01  0.50000500000E+01  0.51100000000E-03 0.  1.
         11   -1    0    0    0    0 -0.00000000000E+00 -0.00000000000E+00 -0.50000499739E+01  0.50000500000E+01  0.51100000000E-03 0. -1.
         50    1    1    2    0    0  0.20850590564E-02 -0.22263213060E-01 -0.66128517859E-04  0.50000500000E+01  0.50000000000E+01 0.  1.
         50    1    1    2    0    0 -0.20850590564E-02  0.22263213060E-01  0.66128517860E-04  0.50000500000E+01  0.50000000000E+01 0. -1.
</event>
<event>
 4    1  0.4944208E-021  0.5000050E+01  0.7818608E-02  0.2136455E+00
        -11   -1    0    0    0    0  0.00000000000E+00  0.00000000000E+00  0.50000499739E+01  0.50000500000E+01  0.51100000000E-03 0. -1.
         11   -1    0    0    0    0 -0.00000000000E+00 -0.00000000000E+00 -0.50000499739E+01  0.50000500000E+01  0.51100000000E-03 0.  1.
         50    1    1    2    0    0  0.20201922279E-02  0.15747578033E-01  0.15745955336E-01  0.50000500000E+01  0.50000000000E+01 0.  0.
         50    1    1    2    0    0 -0.20201922279E-02 -0.15747578033E-01 -0.15745955336E-01  0.50000500000E+01  0.50000000000E+01 0. -1.
</event>
<event>
 4    1  0.4944208E-021  0.5000050E+01  0.7818608E-02  0.2136455E+00
        -11   -1    0    0    0    0  0.00000000000E+00  0.00000000000E+00  0.50000499739E+01  0.50000500000E+01  0.51100000000E-03 0.  1.
         11   -1    0    0    0    0 -0.00000000000E+00 -0.00000000000E+00 -0.50000499739E+01  0.50000500000E+01  0.51100000000E-03 0. -1.
         50    1    1    2    0    0  0.94287678124E-02  0.18139389900E-02 -0.20194317589E-01  0.50000500000E+01  0.50000000000E+01 0.  0.
         50    1    1    2    0    0 -0.94287678124E-02 -0.18139389900E-02  0.20194317589E-01  0.50000500000E+01  0.50000000000E+01 0.  1.
</event>
<event>
 4    1  0.4944208E-021  0.5000050E+01  0.7818608E-02  0.2136455E+00
        -11   -1    0    0    0    0  0.00000000000E+00  0.00000000000E+00  0.50000499739E+01  0.50000500000E+01  0.51100000000E-03 0. -1.
         11   -1    0    0    0    0 -0.00000000000E+00 -0.00000000000E+00 -0.50000499739E+01  0.50000500000E+01  0.51100000000E-03 0.  1.
         50    1    1    2    0    0  0.20889573899E-02  0.13530144103E-01  0.17679761242E-01  0.50000500000E+01  0.50000000000E+01 0.  0.
         50    1    1    2    0    0 -0.20889573899E-02 -0.13530144103E-01 -0.17679761242E-01  0.50000500000E+01  0.50000000000E+01 0.  0.
</event>
<event>
 4    1  0.4944208E-021  0.5000050E+01  0.7818608E-02  0.2136455E+00
        -11   -1    0    0    0    0  0.00000000000E+00  0.00000000000E+00  0.50000499739E+01  0.50000500000E+01  0.51100000000E-03 0.  1.
         11   -1    0    0    0    0 -0.00000000000E+00 -0.00000000000E+00 -0.50000499739E+01  0.50000500000E+01  0.51100000000E-03 0. -1.
         50    1    1    2    0    0 -0.59762864780E-02 -0.21077265485E-01 -0.44760897681E-02  0.50000500000E+01  0.50000000000E+01 0.  1.
         50    1    1    2    0    0  0.59762864780E-02  0.21077265485E-01  0.44760897681E-02  0.50000500000E+01  0.50000000000E+01 0.  0.
</event>
<event>
 4    1  0.4944208E-021  0.5000050E+01  0.7818608E-02  0.2136455E+00
        -11   -1    0    0    0    0  0.00000000000E+00  0.00000000000E+00  0.50000499739E+01  0.50000500000E+01  0.51100000000E-03 0. -1.
         11   -1    0    0    0    0 -0.00000000000E+00 -0.00000000000E+00 -0.50000499739E+01  0.50000500000E+01  0.51100000000E-03 0.  1.
         50    1    1    2    0    0  0.11540767240E-01  0.17096125042E-01 -0.86334060515E-02  0.50000500000E+01  0.50000000000E+01 0.  1.
         50    1    1    2    0    0 -0.11540767240E-01 -0.17096125042E-01  0.86334060515E-02  0.50000500000E+01  0.50000000000E+01 0. -1.
</event>
<event>
 4    1  0.4944208E-021  0.5000050E+01  0.7818608E-02  0.2136455E+00
        -11   -1    0    0    0    0  0.00000000000E+00  0.00000000000E+00  0.50000499739E+01  0.50000500000E+01  0.51100000000E-03 0.  1.
         11   -1    0    0    0    0 -0.00000000000E+00 -0.00000000000E+00 -0.50000499739E+01  0.50000500000E+01  0.51100000000E-03 0. -1.
         50    1    1    2    0    0 -0.16814877555E-01  0.13665638174E-01  0.55238325569E-02  0.50000500000E+01  0.50000000000E+01 0.  0.
         50    1    1    2    0    0  0.16814877555E-01 -0.13665638174E-01 -0.55238325569E-02  0.50000500000E+01  0.50000000000E+01 0.  1.
</event>
<event>
 4    1  0.4944208E-021  0.5000050E+01  0.7818608E-02  0.2136455E+00
        -11   -1    0    0    0    0  0.00000000000E+00  0.00000000000E+00  0.50000499739E+01  0.50000500000E+01  0.51100000000E-03 0.  1.
         11   -1    0    0    0    0 -0.00000000000E+00 -0.00000000000E+00 -0.50000499739E+01  0.50000500000E+01  0.51100000000E-03 0. -1.
         50    1    1    2    0    0 -0.79337237539E-02  0.20681449292E-01 -0.30555167472E-02  0.50000500000E+01  0.50000000000E+01 0.  1.
         50    1    1    2    0    0  0.79337237539E-02 -0.20681449292E-01  0.30555167472E-02  0.50000500000E+01  0.50000000000E+01 0.  0.
</event>
<event>
 4    1  0.4944208E-021  0.5000050E+01  0.7818608E-02  0.2136455E+00
        -11   -1    0    0    0    0  0.00000000000E+00  0.00000000000E+00  0.50000499739E+01  0.50000500000E+01  0.51100000000E-03 0.  1.
         11   -1    0    0    0    0 -0.00000000000E+00 -0.00000000000E+00 -0.50000499739E+01  0.50000500000E+01  0.51100000000E-03 0. -1.
         50    1    1    2    0    0 -0.32769894154E-02 -0.19743478458E-01  0.99729082386E-02  0.50000500000E+01  0.50000000000E+01 0.  1.
         50    1    1    2    0    0  0.32769894154E-02  0.19743478458E-01 -0.99729082386E-02  0.50000500000E+01  0.50000000000E+01 0. -1.
</event>
<event>
 4    1  0.4944208E-021  0.5000050E+01  0.7818608E-02  0.2136455E+00
        -11   -1    0    0    0    0  0.00000000000E+00  0.00000000000E+00  0.50000499739E+01  0.50000500000E+01  0.51100000000E-03 0.  1.
         11   -1    0    0    0    0 -0.00000000000E+00 -0.00000000000E+00 -0.50000499739E+01  0.50000500000E+01  0.51100000000E-03 0. -1.
         50    1    1    2    0    0 -0.20917702341E-01 -0.65000828840E-02  0.44945690847E-02  0.50000500000E+01  0.50000000000E+01 0.  1.
         50    1    1    2    0    0  0.20917702341E-01  0.65000828840E-02 -0.44945690847E-02  0.50000500000E+01  0.50000000000E+01 0. -1.
</event>
<event>
 4    1  0.4944208E-021  0.5000050E+01  0.7818608E-02  0.2136455E+00
        -11   -1    0    0    0    0  0.00000000000E+00  0.00000000000E+00  0.50000499739E+01  0.50000500000E+01  0.51100000000E-03 0. -1.
         11   -1    0    0    0    0 -0.00000000000E+00 -0.00000000000E+00 -0.50000499739E+01  0.50000500000E+01  0.51100000000E-03 0.  1.
         50    1    1    2    0    0  0.20244985780E-01 -0.90467239720E-02  0.28809436193E-02  0.50000500000E+01  0.50000000000E+01 0. -1.
         50    1    1    2    0    0 -0.20244985780E-01  0.90467239720E-02 -0.28809436193E-02  0.50000500000E+01  0.50000000000E+01 0.  1.
</event>
<event>
 4    1  0.4944208E-021  0.5000050E+01  0.7818608E-02  0.2136455E+00
        -11   -1    0    0    0    0  0.00000000000E+00  0.00000000000E+00  0.50000499739E+01  0.50000500000E+01  0.51100000000E-03 0. -1.
         11   -1    0    0    0    0 -0.00000000000E+00 -0.00000000000E+00 -0.50000499739E+01  0.50000500000E+01  0.51100000000E-03 0.  1.
         50    1    1    2    0    0 -0.10972773855E-01 -0.12108630907E-01 -0.15263741071E-01  0.50000500000E+01  0.50000000000E+01 0.  1.
         50    1    1    2    0    0  0.10972773855E-01  0.12108630907E-01  0.15263741071E-01  0.50000500000E+01  0.50000000000E+01 0. -1.
</event>
<event>
 4    1  0.4944208E-021  0.5000050E+01  0.7818608E-02  0.2136455E+00
        -11   -1    0    0    0    0  0.00000000000E+00  0.00000000000E+00  0.50000499739E+01  0.50000500000E+01  0.51100000000E-03 0. -1.
         11   -1    0    0    0    0 -0.00000000000E+00 -0.00000000000E+00 -0.50000499739E+01  0.50000500000E+01  0.51100000000E-03 0.  1.
         50    1    1    2    0    0  0.19177913252E-01 -0.19392941711E-02  0.11333546727E-01  0.50000500000E+01  0.50000000000E+01 0. -1.
         50    1    1    2    0    0 -0.19177913252E-01  0.19392941711E-02 -0.11333546727E-01  0.50000500000E+01  0.50000000000E+01 0.  1.
</event>
<event>
 4    1  0.4944208E-021  0.5000050E+01  0.7818608E-02  0.2136455E+00
        -11   -1    0    0    0    0  0.00000000000E+00  0.00000000000E+00  0.50000499739E+01  0.50000500000E+01  0.51100000000E-03 0.  1.
         11   -1    0    0    0    0 -0.00000000000E+00 -0.00000000000E+00 -0.50000499739E+01  0.50000500000E+01  0.51100000000E-03 0. -1.
         50    1    1    2    0    0 -0.57241089641E-02  0.13556026471E-01  0.16836603662E-01  0.50000500000E+01  0.50000000000E+01 0.  0.
         50    1    1    2    0    0  0.57241089641E-02 -0.13556026471E-01 -0.16836603662E-01  0.50000500000E+01  0.50000000000E+01 0. -1.
</event>
<event>
 4    1  0.4944208E-021  0.5000050E+01  0.7818608E-02  0.2136455E+00
        -11   -1    0    0    0    0  0.00000000000E+00  0.00000000000E+00  0.50000499739E+01  0.50000500000E+01  0.51100000000E-03 0.  1.
         11   -1    0    0    0    0 -0.00000000000E+00 -0.00000000000E+00 -0.50000499739E+01  0.50000500000E+01  0.51100000000E-03 0. -1.
         50    1    1    2    0    0 -0.21765724857E-01  0.43176389196E-02 -0.27592962143E-02  0.50000500000E+01  0.50000000000E+01 0.  0.
         50    1    1    2    0    0  0.21765724857E-01 -0.43176389196E-02  0.27592962143E-02  0.50000500000E+01  0.50000000000E+01 0.  1.
</event>
<event>
 4    1  0.4944208E-021  0.5000050E+01  0.7818608E-02  0.2136455E+00
        -11   -1    0    0    0    0  0.00000000000E+00  0.00000000000E+00  0.50000499739E+01  0.50000500000E+01  0.51100000000E-03 0.  1.
         11   -1    0    0    0    0 -0.00000000000E+00 -0.00000000000E+00 -0.50000499739E+01  0.50000500000E+01  0.51100000000E-03 0. -1.
         50    1    1    2    0    0 -0.19811300066E-01 -0.65702074783E-02  0.80216746009E-02  0.50000500000E+01  0.50000000000E+01 0.  1.
         50    1    1    2    0    0  0.19811300066E-01  0.65702074783E-02 -0.80216746009E-02  0.50000500000E+01  0.50000000000E+01 0. -1.
</event>
<event>
 4    1  0.4944208E-021  0.5000050E+01  0.7818608E-02  0.2136455E+00
        -11   -1    0    0    0    0  0.00000000000E+00  0.00000000000E+00  0.50000499739E+01  0.50000500000E+01  0.51100000000E-03 0.  1.
         11   -1    0    0    0    0 -0.00000000000E+00 -0.00000000000E+00 -0.50000499739E+01  0.50000500000E+01  0.51100000000E-03 0. -1.
         50    1    1    2    0    0  0.15162453605E-01 -0.11043015608E-01  0.12171865385E-01  0.50000500000E+01  0.50000000000E+01 0.  1.
         50    1    1    2    0    0 -0.15162453605E-01  0.11043015608E-01 -0.12171865385E-01  0.50000500000E+01  0.50000000000E+01 0. -1.
</event>
<event>
 4    1  0.4944208E-021  0.5000050E+01  0.7818608E-02  0.2136455E+00
        -11   -1    0    0    0    0  0.00000000000E+00  0.00000000000E+00  0.50000499739E+01  0.50000500000E+01  0.51100000000E-03 0.  1.
         11   -1    0    0    0    0 -0.00000000000E+00 -0.00000000000E+00 -0.50000499739E+01  0.50000500000E+01  0.51100000000E-03 0. -1.
         50    1    1    2    0    0 -0.18454681210E-01 -0.11721530872E-01 -0.46939275076E-02  0.50000500000E+01  0.50000000000E+01 0. -1.
         50    1    1    2    0    0  0.18454681210E-01  0.11721530872E-01  0.46939275076E-02  0.50000500000E+01  0.50000000000E+01 0.  1.
</event>
<event>
 4    1  0.4944208E-021  0.5000050E+01  0.7818608E-02  0.2136455E+00
        -11   -1    0    0    0    0  0.00000000000E+00  0.00000000000E+00  0.50000499739E+01  0.50000500000E+01  0.51100000000E-03 0. -1.
         11   -1    0    0    0    0 -0.00000000000E+00 -0.00000000000E+00 -0.50000499739E+01  0.50000500000E+01  0.51100000000E-03 0.  1.
         50    1    1    2    0    0  0.19013182061E-01 -0.33233728321E-02 -0.11289667883E-01  0.50000500000E+01  0.50000000000E+01 0.  0.
         50    1    1    2    0    0 -0.19013182061E-01  0.33233728321E-02  0.11289667883E-01  0.50000500000E+01  0.50000000000E+01 0.  1.
</event>
<event>
 4    1  0.4944208E-021  0.5000050E+01  0.7818608E-02  0.2136455E+00
        -11   -1    0    0    0    0  0.00000000000E+00  0.00000000000E+00  0.50000499739E+01  0.50000500000E+01  0.51100000000E-03 0.  1.
         11   -1    0    0    0    0 -0.00000000000E+00 -0.00000000000E+00 -0.50000499739E+01  0.50000500000E+01  0.51100000000E-03 0. -1.
         50    1    1    2    0    0  0.93485428830E-02  0.62871664056E-02 -0.19315247463E-01  0.50000500000E+01  0.50000000000E+01 0. -1.
         50    1    1    2    0    0 -0.93485428830E-02 -0.62871664056E-02  0.19315247463E-01  0.50000500000E+01  0.50000000000E+01 0.  0.
</event>
<event>
 4    1  0.4944208E-021  0.5000050E+01  0.7818608E-02  0.2136455E+00
        -11   -1    0    0    0    0  0.00000000000E+00  0.00000000000E+00  0.50000499739E+01  0.50000500000E+01  0.51100000000E-03 0. -1.
         11   -1    0    0    0    0 -0.00000000000E+00 -0.00000000000E+00 -0.50000499739E+01  0.50000500000E+01  0.51100000000E-03 0.  1.
         50    1    1    2    0    0 -0.17411419062E-01  0.83306395398E-02  0.11289173180E-01  0.50000500000E+01  0.50000000000E+01 0. -1.
         50    1    1    2    0    0  0.17411419062E-01 -0.83306395398E-02 -0.11289173180E-01  0.50000500000E+01  0.50000000000E+01 0.  1.
</event>
<event>
 4    1  0.4944208E-021  0.5000050E+01  0.7818608E-02  0.2136455E+00
        -11   -1    0    0    0    0  0.00000000000E+00  0.00000000000E+00  0.50000499739E+01  0.50000500000E+01  0.51100000000E-03 0.  1.
         11   -1    0    0    0    0 -0.00000000000E+00 -0.00000000000E+00 -0.50000499739E+01  0.50000500000E+01  0.51100000000E-03 0. -1.
         50    1    1    2    0    0  0.97045903532E-02 -0.90112608048E-02  0.18017230774E-01  0.50000500000E+01  0.50000000000E+01 0.  1.
         50    1    1    2    0    0 -0.97045903532E-02  0.90112608048E-02 -0.18017230774E-01  0.50000500000E+01  0.50000000000E+01 0. -1.
</event>
<event>
 4    1  0.4944208E-021  0.5000050E+01  0.7818608E-02  0.2136455E+00
        -11   -1    0    0    0    0  0.00000000000E+00  0.00000000000E+00  0.50000499739E+01  0.50000500000E+01  0.51100000000E-03 0.  1.
         11   -1    0    0    0    0 -0.00000000000E+00 -0.00000000000E+00 -0.50000499739E+01  0.50000500000E+01  0.51100000000E-03 0. -1.
         50    1    1    2    0    0  0.21366638990E-01  0.57481363359E-02 -0.32292672454E-02  0.50000500000E+01  0.50000000000E+01 0.  1.
         50    1    1    2    0    0 -0.21366638990E-01 -0.57481363359E-02  0.32292672454E-02  0.50000500000E+01  0.50000000000E+01 0. -1.
</event>
<event>
 4    1  0.4944208E-021  0.5000050E+01  0.7818608E-02  0.2136455E+00
        -11   -1    0    0    0    0  0.00000000000E+00  0.00000000000E+00  0.50000499739E+01  0.50000500000E+01  0.51100000000E-03 0.  1.
         11   -1    0    0    0    0 -0.00000000000E+00 -0.00000000000E+00 -0.50000499739E+01  0.50000500000E+01  0.51100000000E-03 0. -1.
         50    1    1    2    0    0  0.56799202293E-03 -0.30177267733E-02 -0.22148887335E-01  0.50000500000E+01  0.50000000000E+01 0.  0.
         50    1    1    2    0    0 -0.56799202293E-03  0.30177267733E-02  0.22148887335E-01  0.50000500000E+01  0.50000000000E+01 0.  1.
</event>
<event>
 4    1  0.4944208E-021  0.5000050E+01  0.7818608E-02  0.2136455E+00
        -11   -1    0    0    0    0  0.00000000000E+00  0.00000000000E+00  0.50000499739E+01  0.50000500000E+01  0.51100000000E-03 0. -1.
         11   -1    0    0    0    0 -0.00000000000E+00 -0.00000000000E+00 -0.50000499739E+01  0.50000500000E+01  0.51100000000E-03 0.  1.
         50    1    1    2    0    0 -0.35605795664E-02 -0.14800190333E-01  0.16379228897E-01  0.50000500000E+01  0.50000000000E+01 0. -1.
         50    1    1    2    0    0  0.35605795664E-02  0.14800190333E-01 -0.16379228897E-01  0.50000500000E+01  0.50000000000E+01 0.  1.
</event>
<event>
 4    1  0.4944208E-021  0.5000050E+01  0.7818608E-02  0.2136455E+00
        -11   -1    0    0    0    0  0.00000000000E+00  0.00000000000E+00  0.50000499739E+01  0.50000500000E+01  0.51100000000E-03 0. -1.
         11   -1    0    0    0    0 -0.00000000000E+00 -0.00000000000E+00 -0.50000499739E+01  0.50000500000E+01  0.51100000000E-03 0.  1.
         50    1    1    2    0    0 -0.87885808933E-02 -0.17013158412E-01  0.11546245569E-01  0.50000500000E+01  0.50000000000E+01 0.  0.
         50    1    1    2    0    0  0.87885808933E-02  0.17013158412E-01 -0.11546245569E-01  0.50000500000E+01  0.50000000000E+01 0.  0.
</event>
<event>
 4    1  0.4944208E-021  0.5000050E+01  0.7818608E-02  0.2136455E+00
        -11   -1    0    0    0    0  0.00000000000E+00  0.00000000000E+00  0.50000499739E+01  0.50000500000E+01  0.51100000000E-03 0.  1.
         11   -1    0    0    0    0 -0.00000000000E+00 -0.00000000000E+00 -0.50000499739E+01  0.50000500000E+01  0.51100000000E-03 0. -1.
         50    1    1    2    0    0 -0.10686883845E-01  0.96794277196E-02 -0.17090982789E-01  0.50000500000E+01  0.50000000000E+01 0.  0.
         50    1    1    2    0    0  0.10686883845E-01 -0.96794277196E-02  0.17090982789E-01  0.50000500000E+01  0.50000000000E+01 0. -1.
</event>
<event>
 4    1  0.4944208E-021  0.5000050E+01  0.7818608E-02  0.2136455E+00
        -11   -1    0    0    0    0  0.00000000000E+00  0.00000000000E+00  0.50000499739E+01  0.50000500000E+01  0.51100000000E-03 0. -1.
         11   -1    0    0    0    0 -0.00000000000E+00 -0.00000000000E+00 -0.50000499739E+01  0.50000500000E+01  0.51100000000E-03 0.  1.
         50    1    1    2    0    0  0.44896295772E-02 -0.19573607382E-01  0.98346133790E-02  0.50000500000E+01  0.50000000000E+01 0. -1.
         50    1    1    2    0    0 -0.44896295772E-02  0.19573607382E-01 -0.98346133790E-02  0.50000500000E+01  0.50000000000E+01 0.  1.
</event>
<event>
 4    1  0.4944208E-021  0.5000050E+01  0.7818608E-02  0.2136455E+00
        -11   -1    0    0    0    0  0.00000000000E+00  0.00000000000E+00  0.50000499739E+01  0.50000500000E+01  0.51100000000E-03 0. -1.
         11   -1    0    0    0    0 -0.00000000000E+00 -0.00000000000E+00 -0.50000499739E+01  0.50000500000E+01  0.51100000000E-03 0.  1.
         50    1    1    2    0    0  0.17637608437E-01 -0.12827099392E-01  0.49378932561E-02  0.50000500000E+01  0.50000000000E+01 0.  1.
         50    1    1    2    0    0 -0.17637608437E-01  0.12827099392E-01 -0.49378932561E-02  0.50000500000E+01  0.50000000000E+01 0.  0.
</event>
<event>
 4    1  0.4944208E-021  0.5000050E+01  0.7818608E-02  0.2136455E+00
        -11   -1    0    0    0    0  0.00000000000E+00  0.00000000000E+00  0.50000499739E+01  0.50000500000E+01  0.51100000000E-03 0. -1.
         11   -1    0    0    0    0 -0.00000000000E+00 -0.00000000000E+00 -0.50000499739E+01  0.50000500000E+01  0.51100000000E-03 0.  1.
         50    1    1    2    0    0  0.11090834525E-01 -0.16854901826E-01 -0.96388886263E-02  0.50000500000E+01  0.50000000000E+01 0.  1.
         50    1    1    2    0    0 -0.11090834525E-01  0.16854901826E-01  0.96388886263E-02  0.50000500000E+01  0.50000000000E+01 0. -1.
</event>
<event>
 4    1  0.4944208E-021  0.5000050E+01  0.7818608E-02  0.2136455E+00
        -11   -1    0    0    0    0  0.00000000000E+00  0.00000000000E+00  0.50000499739E+01  0.50000500000E+01  0.51100000000E-03 0.  1.
         11   -1    0    0    0    0 -0.00000000000E+00 -0.00000000000E+00 -0.50000499739E+01  0.50000500000E+01  0.51100000000E-03 0. -1.
         50    1    1    2    0    0 -0.34622174836E-02  0.15396293727E-01 -0.15842022900E-01  0.50000500000E+01  0.50000000000E+01 0.  0.
         50    1    1    2    0    0  0.34622174836E-02 -0.15396293727E-01  0.15842022900E-01  0.50000500000E+01  0.50000000000E+01 0.  0.
</event>
<event>
 4    1  0.4944208E-021  0.5000050E+01  0.7818608E-02  0.2136455E+00
        -11   -1    0    0    0    0  0.00000000000E+00  0.00000000000E+00  0.50000499739E+01  0.50000500000E+01  0.51100000000E-03 0. -1.
         11   -1    0    0    0    0 -0.00000000000E+00 -0.00000000000E+00 -0.50000499739E+01  0.50000500000E+01  0.51100000000E-03 0.  1.
         50    1    1    2    0    0 -0.17566020535E-01 -0.12613371987E-01  0.56868505936E-02  0.50000500000E+01  0.50000000000E+01 0. -1.
         50    1    1    2    0    0  0.17566020535E-01  0.12613371987E-01 -0.56868505936E-02  0.50000500000E+01  0.50000000000E+01 0.  1.
</event>
<event>
 4    1  0.4944208E-021  0.5000050E+01  0.7818608E-02  0.2136455E+00
        -11   -1    0    0    0    0  0.00000000000E+00  0.00000000000E+00  0.50000499739E+01  0.50000500000E+01  0.51100000000E-03 0.  1.
         11   -1    0    0    0    0 -0.00000000000E+00 -0.00000000000E+00 -0.50000499739E+01  0.50000500000E+01  0.51100000000E-03 0. -1.
         50    1    1    2    0    0 -0.14740265769E-01  0.53014263603E-02  0.15956877627E-01  0.50000500000E+01  0.50000000000E+01 0.  1.
         50    1    1    2    0    0  0.14740265769E-01 -0.53014263603E-02 -0.15956877627E-01  0.50000500000E+01  0.50000000000E+01 0. -1.
</event>
<event>
 4    1  0.4944208E-021  0.5000050E+01  0.7818608E-02  0.2136455E+00
        -11   -1    0    0    0    0  0.00000000000E+00  0.00000000000E+00  0.50000499739E+01  0.50000500000E+01  0.51100000000E-03 0.  1.
         11   -1    0    0    0    0 -0.00000000000E+00 -0.00000000000E+00 -0.50000499739E+01  0.50000500000E+01  0.51100000000E-03 0. -1.
         50    1    1    2    0    0  0.78183159076E-02 -0.20229298020E-01 -0.54453593057E-02  0.50000500000E+01  0.50000000000E+01 0.  1.
         50    1    1    2    0    0 -0.78183159076E-02  0.20229298020E-01  0.54453593057E-02  0.50000500000E+01  0.50000000000E+01 0. -1.
</event>
<event>
 4    1  0.4944208E-021  0.5000050E+01  0.7818608E-02  0.2136455E+00
        -11   -1    0    0    0    0  0.00000000000E+00  0.00000000000E+00  0.50000499739E+01  0.50000500000E+01  0.51100000000E-03 0. -1.
         11   -1    0    0    0    0 -0.00000000000E+00 -0.00000000000E+00 -0.50000499739E+01  0.50000500000E+01  0.51100000000E-03 0.  1.
         50    1    1    2    0    0  0.83849606058E-02 -0.20352195847E-01  0.39348519453E-02  0.50000500000E+01  0.50000000000E+01 0. -1.
         50    1    1    2    0    0 -0.83849606058E-02  0.20352195847E-01 -0.39348519453E-02  0.50000500000E+01  0.50000000000E+01 0.  0.
</event>
<event>
 4    1  0.4944208E-021  0.5000050E+01  0.7818608E-02  0.2136455E+00
        -11   -1    0    0    0    0  0.00000000000E+00  0.00000000000E+00  0.50000499739E+01  0.50000500000E+01  0.51100000000E-03 0.  1.
         11   -1    0    0    0    0 -0.00000000000E+00 -0.00000000000E+00 -0.50000499739E+01  0.50000500000E+01  0.51100000000E-03 0. -1.
         50    1    1    2    0    0  0.77357848521E-02  0.17760696854E-01  0.11167711492E-01  0.50000500000E+01  0.50000000000E+01 0.  1.
         50    1    1    2    0    0 -0.77357848521E-02 -0.17760696854E-01 -0.11167711492E-01  0.50000500000E+01  0.50000000000E+01 0. -1.
</event>
<event>
 4    1  0.4944208E-021  0.5000050E+01  0.7818608E-02  0.2136455E+00
        -11   -1    0    0    0    0  0.00000000000E+00  0.00000000000E+00  0.50000499739E+01  0.50000500000E+01  0.51100000000E-03 0. -1.
         11   -1    0    0    0    0 -0.00000000000E+00 -0.00000000000E+00 -0.50000499739E+01  0.50000500000E+01  0.51100000000E-03 0.  1.
         50    1    1    2    0    0  0.19560273736E-01  0.87738056964E-02 -0.63575565242E-02  0.50000500000E+01  0.50000000000E+01 0.  1.
         50    1    1    2    0    0 -0.19560273736E-01 -0.87738056964E-02  0.63575565242E-02  0.50000500000E+01  0.50000000000E+01 0. -1.
</event>
<event>
 4    1  0.4944208E-021  0.5000050E+01  0.7818608E-02  0.2136455E+00
        -11   -1    0    0    0    0  0.00000000000E+00  0.00000000000E+00  0.50000499739E+01  0.50000500000E+01  0.51100000000E-03 0. -1.
         11   -1    0    0    0    0 -0.00000000000E+00 -0.00000000000E+00 -0.50000499739E+01  0.50000500000E+01  0.51100000000E-03 0.  1.
         50    1    1    2    0    0 -0.66033836203E-02 -0.25395256470E-02  0.21211992699E-01  0.50000500000E+01  0.50000000000E+01 0.  0.
         50    1    1    2    0    0  0.66033836203E-02  0.25395256470E-02 -0.21211992699E-01  0.50000500000E+01  0.50000000000E+01 0.  1.
</event>
<event>
 4    1  0.4944208E-021  0.5000050E+01  0.7818608E-02  0.2136455E+00
        -11   -1    0    0    0    0  0.00000000000E+00  0.00000000000E+00  0.50000499739E+01  0.50000500000E+01  0.51100000000E-03 0. -1.
         11   -1    0    0    0    0 -0.00000000000E+00 -0.00000000000E+00 -0.50000499739E+01  0.50000500000E+01  0.51100000000E-03 0.  1.
         50    1    1    2    0    0 -0.81511345802E-04 -0.16581794329E-01  0.15001331698E-01  0.50000500000E+01  0.50000000000E+01 0. -1.
         50    1    1    2    0    0  0.81511345802E-04  0.16581794329E-01 -0.15001331698E-01  0.50000500000E+01  0.50000000000E+01 0.  1.
</event>
<event>
 4    1  0.4944208E-021  0.5000050E+01  0.7818608E-02  0.2136455E+00
        -11   -1    0    0    0    0  0.00000000000E+00  0.00000000000E+00  0.50000499739E+01  0.50000500000E+01  0.51100000000E-03 0. -1.
         11   -1    0    0    0    0 -0.00000000000E+00 -0.00000000000E+00 -0.50000499739E+01  0.50000500000E+01  0.51100000000E-03 0.  1.
         50    1    1    2    0    0 -0.21549655100E-01 -0.55499166954E-02 -0.21939210932E-02  0.50000500000E+01  0.50000000000E+01 0.  0.
         50    1    1    2    0    0  0.21549655100E-01  0.55499166954E-02  0.21939210932E-02  0.50000500000E+01  0.50000000000E+01 0. -1.
</event>
<event>
 4    1  0.4944208E-021  0.5000050E+01  0.7818608E-02  0.2136455E+00
        -11   -1    0    0    0    0  0.00000000000E+00  0.00000000000E+00  0.50000499739E+01  0.50000500000E+01  0.51100000000E-03 0.  1.
         11   -1    0    0    0    0 -0.00000000000E+00 -0.00000000000E+00 -0.50000499739E+01  0.50000500000E+01  0.51100000000E-03 0. -1.
         50    1    1    2    0    0  0.16271329054E-01  0.14168731429E-02 -0.15272158371E-01  0.50000500000E+01  0.50000000000E+01 0.  0.
         50    1    1    2    0    0 -0.16271329054E-01 -0.14168731429E-02  0.15272158371E-01  0.50000500000E+01  0.50000000000E+01 0. -1.
</event>
<event>
 4    1  0.4944208E-021  0.5000050E+01  0.7818608E-02  0.2136455E+00
        -11   -1    0    0    0    0  0.00000000000E+00  0.00000000000E+00  0.50000499739E+01  0.50000500000E+01  0.51100000000E-03 0. -1.
         11   -1    0    0    0    0 -0.00000000000E+00 -0.00000000000E+00 -0.50000499739E+01  0.50000500000E+01  0.51100000000E-03 0.  1.
         50    1    1    2    0    0 -0.60268754490E-02 -0.36349990136E-02 -0.21224185603E-01  0.50000500000E+01  0.50000000000E+01 0.  1.
         50    1    1    2    0    0  0.60268754490E-02  0.36349990136E-02  0.21224185603E-01  0.50000500000E+01  0.50000000000E+01 0.  0.
</event>
<event>
 4    1  0.4944208E-021  0.5000050E+01  0.7818608E-02  0.2136455E+00
        -11   -1    0    0    0    0  0.00000000000E+00  0.00000000000E+00  0.50000499739E+01  0.50000500000E+01  0.51100000000E-03 0.  1.
         11   -1    0    0    0    0 -0.00000000000E+00 -0.00000000000E+00 -0.50000499739E+01  0.50000500000E+01  0.51100000000E-03 0. -1.
         50    1    1    2    0    0 -0.20475314017E-02 -0.16824508363E-01  0.14585816176E-01  0.50000500000E+01  0.50000000000E+01 0.  1.
         50    1    1    2    0    0  0.20475314017E-02  0.16824508363E-01 -0.14585816176E-01  0.50000500000E+01  0.50000000000E+01 0. -1.
</event>
<event>
 4    1  0.4944208E-021  0.5000050E+01  0.7818608E-02  0.2136455E+00
        -11   -1    0    0    0    0  0.00000000000E+00  0.00000000000E+00  0.50000499739E+01  0.50000500000E+01  0.51100000000E-03 0.  1.
         11   -1    0    0    0    0 -0.00000000000E+00 -0.00000000000E+00 -0.50000499739E+01  0.50000500000E+01  0.51100000000E-03 0. -1.
         50    1    1    2    0    0 -0.16940911313E-01 -0.14550483147E-01  0.11364260093E-02  0.50000500000E+01  0.50000000000E+01 0. -1.
         50    1    1    2    0    0  0.16940911313E-01  0.14550483147E-01 -0.11364260093E-02  0.50000500000E+01  0.50000000000E+01 0.  1.
</event>
<event>
 4    1  0.4944208E-021  0.5000050E+01  0.7818608E-02  0.2136455E+00
        -11   -1    0    0    0    0  0.00000000000E+00  0.00000000000E+00  0.50000499739E+01  0.50000500000E+01  0.51100000000E-03 0.  1.
         11   -1    0    0    0    0 -0.00000000000E+00 -0.00000000000E+00 -0.50000499739E+01  0.50000500000E+01  0.51100000000E-03 0. -1.
         50    1    1    2    0    0  0.20006127014E-01 -0.60430032139E-02 -0.79523263296E-02  0.50000500000E+01  0.50000000000E+01 0.  0.
         50    1    1    2    0    0 -0.20006127014E-01  0.60430032139E-02  0.79523263296E-02  0.50000500000E+01  0.50000000000E+01 0.  1.
</event>
<event>
 4    1  0.4944208E-021  0.5000050E+01  0.7818608E-02  0.2136455E+00
        -11   -1    0    0    0    0  0.00000000000E+00  0.00000000000E+00  0.50000499739E+01  0.50000500000E+01  0.51100000000E-03 0.  1.
         11   -1    0    0    0    0 -0.00000000000E+00 -0.00000000000E+00 -0.50000499739E+01  0.50000500000E+01  0.51100000000E-03 0. -1.
         50    1    1    2    0    0 -0.53014534464E-02 -0.16588527660E-01  0.14025613762E-01  0.50000500000E+01  0.50000000000E+01 0. -1.
         50    1    1    2    0    0  0.53014534464E-02  0.16588527660E-01 -0.14025613762E-01  0.50000500000E+01  0.50000000000E+01 0. -1.
</event>
<event>
 4    1  0.4944208E-021  0.5000050E+01  0.7818608E-02  0.2136455E+00
        -11   -1    0    0    0    0  0.00000000000E+00  0.00000000000E+00  0.50000499739E+01  0.50000500000E+01  0.51100000000E-03 0.  1.
         11   -1    0    0    0    0 -0.00000000000E+00 -0.00000000000E+00 -0.50000499739E+01  0.50000500000E+01  0.51100000000E-03 0. -1.
         50    1    1    2    0    0 -0.17358047859E-01 -0.14078307053E-01 -0.70848078493E-03  0.50000500000E+01  0.50000000000E+01 0.  1.
         50    1    1    2    0    0  0.17358047859E-01  0.14078307053E-01  0.70848078493E-03  0.50000500000E+01  0.50000000000E+01 0.  0.
</event>
<event>
 4    1  0.4944208E-021  0.5000050E+01  0.7818608E-02  0.2136455E+00
        -11   -1    0    0    0    0  0.00000000000E+00  0.00000000000E+00  0.50000499739E+01  0.50000500000E+01  0.51100000000E-03 0.  1.
         11   -1    0    0    0    0 -0.00000000000E+00 -0.00000000000E+00 -0.50000499739E+01  0.50000500000E+01  0.51100000000E-03 0. -1.
         50    1    1    2    0    0  0.16347300887E-01  0.59553378229E-02  0.14046430334E-01  0.50000500000E+01  0.50000000000E+01 0.  0.
         50    1    1    2    0    0 -0.16347300887E-01 -0.59553378229E-02 -0.14046430334E-01  0.50000500000E+01  0.50000000000E+01 0.  1.
</event>
<event>
 4    1  0.4944208E-021  0.5000050E+01  0.7818608E-02  0.2136455E+00
        -11   -1    0    0    0    0  0.00000000000E+00  0.00000000000E+00  0.50000499739E+01  0.50000500000E+01  0.51100000000E-03 0.  1.
         11   -1    0    0    0    0 -0.00000000000E+00 -0.00000000000E+00 -0.50000499739E+01  0.50000500000E+01  0.51100000000E-03 0. -1.
         50    1    1    2    0    0 -0.52138075392E-02  0.21726741163E-01  0.87603047823E-03  0.50000500000E+01  0.50000000000E+01 0.  0.
         50    1    1    2    0    0  0.52138075392E-02 -0.21726741163E-01 -0.87603047823E-03  0.50000500000E+01  0.50000000000E+01 0. -1.
</event>
<event>
 4    1  0.4944208E-021  0.5000050E+01  0.7818608E-02  0.2136455E+00
        -11   -1    0    0    0    0  0.00000000000E+00  0.00000000000E+00  0.50000499739E+01  0.50000500000E+01  0.51100000000E-03 0.  1.
         11   -1    0    0    0    0 -0.00000000000E+00 -0.00000000000E+00 -0.50000499739E+01  0.50000500000E+01  0.51100000000E-03 0. -1.
         50    1    1    2    0    0  0.11023822313E-01 -0.19452972648E-01 -0.24432920112E-03  0.50000500000E+01  0.50000000000E+01 0.  1.
         50    1    1    2    0    0 -0.11023822313E-01  0.19452972648E-01  0.24432920112E-03  0.50000500000E+01  0.50000000000E+01 0. -1.
</event>
<event>
 4    1  0.4944208E-021  0.5000050E+01  0.7818608E-02  0.2136455E+00
        -11   -1    0    0    0    0  0.00000000000E+00  0.00000000000E+00  0.50000499739E+01  0.50000500000E+01  0.51100000000E-03 0. -1.
         11   -1    0    0    0    0 -0.00000000000E+00 -0.00000000000E+00 -0.50000499739E+01  0.50000500000E+01  0.51100000000E-03 0.  1.
         50    1    1    2    0    0 -0.12196952402E-01  0.12502025683E-01  0.13961955663E-01  0.50000500000E+01  0.50000000000E+01 0. -1.
         50    1    1    2    0    0  0.12196952402E-01 -0.12502025683E-01 -0.13961955663E-01  0.50000500000E+01  0.50000000000E+01 0.  1.
</event>
<event>
 4    1  0.4944208E-021  0.5000050E+01  0.7818608E-02  0.2136455E+00
        -11   -1    0    0    0    0  0.00000000000E+00  0.00000000000E+00  0.50000499739E+01  0.50000500000E+01  0.51100000000E-03 0.  1.
         11   -1    0    0    0    0 -0.00000000000E+00 -0.00000000000E+00 -0.50000499739E+01  0.50000500000E+01  0.51100000000E-03 0. -1.
         50    1    1    2    0    0  0.20387066660E-01  0.24872405476E-02 -0.88421517428E-02  0.50000500000E+01  0.50000000000E+01 0. -1.
         50    1    1    2    0    0 -0.20387066660E-01 -0.24872405476E-02  0.88421517428E-02  0.50000500000E+01  0.50000000000E+01 0.  1.
</event>
<event>
 4    1  0.4944208E-021  0.5000050E+01  0.7818608E-02  0.2136455E+00
        -11   -1    0    0    0    0  0.00000000000E+00  0.00000000000E+00  0.50000499739E+01  0.50000500000E+01  0.51100000000E-03 0. -1.
         11   -1    0    0    0    0 -0.00000000000E+00 -0.00000000000E+00 -0.50000499739E+01  0.50000500000E+01  0.51100000000E-03 0.  1.
         50    1    1    2    0    0  0.18853620185E-01 -0.91815990389E-02 -0.77615555796E-02  0.50000500000E+01  0.50000000000E+01 0. -1.
         50    1    1    2    0    0 -0.18853620185E-01  0.91815990389E-02  0.77615555796E-02  0.50000500000E+01  0.50000000000E+01 0.  1.
</event>
<event>
 4    1  0.4944208E-021  0.5000050E+01  0.7818608E-02  0.2136455E+00
        -11   -1    0    0    0    0  0.00000000000E+00  0.00000000000E+00  0.50000499739E+01  0.50000500000E+01  0.51100000000E-03 0. -1.
         11   -1    0    0    0    0 -0.00000000000E+00 -0.00000000000E+00 -0.50000499739E+01  0.50000500000E+01  0.51100000000E-03 0.  1.
         50    1    1    2    0    0  0.18919299863E-01  0.47055861846E-02  0.10950801402E-01  0.50000500000E+01  0.50000000000E+01 0. -1.
         50    1    1    2    0    0 -0.18919299863E-01 -0.47055861846E-02 -0.10950801402E-01  0.50000500000E+01  0.50000000000E+01 0.  1.
</event>
<event>
 4    1  0.4944208E-021  0.5000050E+01  0.7818608E-02  0.2136455E+00
        -11   -1    0    0    0    0  0.00000000000E+00  0.00000000000E+00  0.50000499739E+01  0.50000500000E+01  0.51100000000E-03 0. -1.
         11   -1    0    0    0    0 -0.00000000000E+00 -0.00000000000E+00 -0.50000499739E+01  0.50000500000E+01  0.51100000000E-03 0.  1.
         50    1    1    2    0    0  0.12000762208E-01 -0.14935948705E-01  0.11528297476E-01  0.50000500000E+01  0.50000000000E+01 0. -1.
         50    1    1    2    0    0 -0.12000762208E-01  0.14935948705E-01 -0.11528297476E-01  0.50000500000E+01  0.50000000000E+01 0.  1.
</event>
<event>
 4    1  0.4944208E-021  0.5000050E+01  0.7818608E-02  0.2136455E+00
        -11   -1    0    0    0    0  0.00000000000E+00  0.00000000000E+00  0.50000499739E+01  0.50000500000E+01  0.51100000000E-03 0.  1.
         11   -1    0    0    0    0 -0.00000000000E+00 -0.00000000000E+00 -0.50000499739E+01  0.50000500000E+01  0.51100000000E-03 0. -1.
         50    1    1    2    0    0  0.12569072046E-01 -0.91197828569E-02 -0.16088831174E-01  0.50000500000E+01  0.50000000000E+01 0.  0.
         50    1    1    2    0    0 -0.12569072046E-01  0.91197828569E-02  0.16088831174E-01  0.50000500000E+01  0.50000000000E+01 0.  0.
</event>
<event>
 4    1  0.4944208E-021  0.5000050E+01  0.7818608E-02  0.2136455E+00
        -11   -1    0    0    0    0  0.00000000000E+00  0.00000000000E+00  0.50000499739E+01  0.50000500000E+01  0.51100000000E-03 0. -1.
         11   -1    0    0    0    0 -0.00000000000E+00 -0.00000000000E+00 -0.50000499739E+01  0.50000500000E+01  0.51100000000E-03 0.  1.
         50    1    1    2    0    0 -0.65609919749E-02  0.21035438822E-01 -0.38034455248E-02  0.50000500000E+01  0.50000000000E+01 0.  1.
         50    1    1    2    0    0  0.65609919749E-02 -0.21035438822E-01  0.38034455247E-02  0.50000500000E+01  0.50000000000E+01 0.  0.
</event>
<event>
 4    1  0.4944208E-021  0.5000050E+01  0.7818608E-02  0.2136455E+00
        -11   -1    0    0    0    0  0.00000000000E+00  0.00000000000E+00  0.50000499739E+01  0.50000500000E+01  0.51100000000E-03 0.  1.
         11   -1    0    0    0    0 -0.00000000000E+00 -0.00000000000E+00 -0.50000499739E+01  0.50000500000E+01  0.51100000000E-03 0. -1.
         50    1    1    2    0    0 -0.15144294876E-01 -0.11241320512E-01  0.12011891852E-01  0.50000500000E+01  0.50000000000E+01 0. -1.
         50    1    1    2    0    0  0.15144294876E-01  0.11241320512E-01 -0.12011891852E-01  0.50000500000E+01  0.50000000000E+01 0.  0.
</event>
<event>
 4    1  0.4944208E-021  0.5000050E+01  0.7818608E-02  0.2136455E+00
        -11   -1    0    0    0    0  0.00000000000E+00  0.00000000000E+00  0.50000499739E+01  0.50000500000E+01  0.51100000000E-03 0.  1.
         11   -1    0    0    0    0 -0.00000000000E+00 -0.00000000000E+00 -0.50000499739E+01  0.50000500000E+01  0.51100000000E-03 0. -1.
         50    1    1    2    0    0  0.22451556804E-02  0.12880831486E-01  0.18139623927E-01  0.50000500000E+01  0.50000000000E+01 0.  1.
         50    1    1    2    0    0 -0.22451556804E-02 -0.12880831486E-01 -0.18139623927E-01  0.50000500000E+01  0.50000000000E+01 0.  1.
</event>
<event>
 4    1  0.4944208E-021  0.5000050E+01  0.7818608E-02  0.2136455E+00
        -11   -1    0    0    0    0  0.00000000000E+00  0.00000000000E+00  0.50000499739E+01  0.50000500000E+01  0.51100000000E-03 0. -1.
         11   -1    0    0    0    0 -0.00000000000E+00 -0.00000000000E+00 -0.50000499739E+01  0.50000500000E+01  0.51100000000E-03 0.  1.
         50    1    1    2    0    0  0.12652809795E-01  0.11278538011E-01 -0.14584357532E-01  0.50000500000E+01  0.50000000000E+01 0.  0.
         50    1    1    2    0    0 -0.12652809795E-01 -0.11278538011E-01  0.14584357532E-01  0.50000500000E+01  0.50000000000E+01 0.  0.
</event>
<event>
 4    1  0.4944208E-021  0.5000050E+01  0.7818608E-02  0.2136455E+00
        -11   -1    0    0    0    0  0.00000000000E+00  0.00000000000E+00  0.50000499739E+01  0.50000500000E+01  0.51100000000E-03 0. -1.
         11   -1    0    0    0    0 -0.00000000000E+00 -0.00000000000E+00 -0.50000499739E+01  0.50000500000E+01  0.51100000000E-03 0.  1.
         50    1    1    2    0    0  0.16396023907E-01  0.56945105470E-02  0.14097710795E-01  0.50000500000E+01  0.50000000000E+01 0.  0.
         50    1    1    2    0    0 -0.16396023907E-01 -0.56945105470E-02 -0.14097710795E-01  0.50000500000E+01  0.50000000000E+01 0. -1.
</event>
<event>
 4    1  0.4944208E-021  0.5000050E+01  0.7818608E-02  0.2136455E+00
        -11   -1    0    0    0    0  0.00000000000E+00  0.00000000000E+00  0.50000499739E+01  0.50000500000E+01  0.51100000000E-03 0.  1.
         11   -1    0    0    0    0 -0.00000000000E+00 -0.00000000000E+00 -0.50000499739E+01  0.50000500000E+01  0.51100000000E-03 0. -1.
         50    1    1    2    0    0  0.17063511838E-01 -0.72088607946E-02 -0.12524830929E-01  0.50000500000E+01  0.50000000000E+01 0. -1.
         50    1    1    2    0    0 -0.17063511838E-01  0.72088607946E-02  0.12524830929E-01  0.50000500000E+01  0.50000000000E+01 0.  1.
</event>
<event>
 4    1  0.4944208E-021  0.5000050E+01  0.7818608E-02  0.2136455E+00
        -11   -1    0    0    0    0  0.00000000000E+00  0.00000000000E+00  0.50000499739E+01  0.50000500000E+01  0.51100000000E-03 0.  1.
         11   -1    0    0    0    0 -0.00000000000E+00 -0.00000000000E+00 -0.50000499739E+01  0.50000500000E+01  0.51100000000E-03 0. -1.
         50    1    1    2    0    0 -0.16077228345E-01 -0.10798966039E-02 -0.15503517409E-01  0.50000500000E+01  0.50000000000E+01 0.  0.
         50    1    1    2    0    0  0.16077228345E-01  0.10798966039E-02  0.15503517409E-01  0.50000500000E+01  0.50000000000E+01 0.  0.
</event>
<event>
 4    1  0.4944208E-021  0.5000050E+01  0.7818608E-02  0.2136455E+00
        -11   -1    0    0    0    0  0.00000000000E+00  0.00000000000E+00  0.50000499739E+01  0.50000500000E+01  0.51100000000E-03 0.  1.
         11   -1    0    0    0    0 -0.00000000000E+00 -0.00000000000E+00 -0.50000499739E+01  0.50000500000E+01  0.51100000000E-03 0. -1.
         50    1    1    2    0    0  0.11681325927E-01  0.66939853752E-03 -0.19055210053E-01  0.50000500000E+01  0.50000000000E+01 0. -1.
         50    1    1    2    0    0 -0.11681325927E-01 -0.66939853752E-03  0.19055210053E-01  0.50000500000E+01  0.50000000000E+01 0.  1.
</event>
<event>
 4    1  0.4944208E-021  0.5000050E+01  0.7818608E-02  0.2136455E+00
        -11   -1    0    0    0    0  0.00000000000E+00  0.00000000000E+00  0.50000499739E+01  0.50000500000E+01  0.51100000000E-03 0. -1.
         11   -1    0    0    0    0 -0.00000000000E+00 -0.00000000000E+00 -0.50000499739E+01  0.50000500000E+01  0.51100000000E-03 0.  1.
         50    1    1    2    0    0 -0.20396009132E-01  0.19037868234E-02 -0.89655399857E-02  0.50000500000E+01  0.50000000000E+01 0.  1.
         50    1    1    2    0    0  0.20396009132E-01 -0.19037868234E-02  0.89655399857E-02  0.50000500000E+01  0.50000000000E+01 0. -1.
</event>
<event>
 4    1  0.4944208E-021  0.5000050E+01  0.7818608E-02  0.2136455E+00
        -11   -1    0    0    0    0  0.00000000000E+00  0.00000000000E+00  0.50000499739E+01  0.50000500000E+01  0.51100000000E-03 0.  1.
         11   -1    0    0    0    0 -0.00000000000E+00 -0.00000000000E+00 -0.50000499739E+01  0.50000500000E+01  0.51100000000E-03 0. -1.
         50    1    1    2    0    0 -0.14155259504E-01  0.13605438950E-01  0.10701549390E-01  0.50000500000E+01  0.50000000000E+01 0.  1.
         50    1    1    2    0    0  0.14155259504E-01 -0.13605438950E-01 -0.10701549390E-01  0.50000500000E+01  0.50000000000E+01 0. -1.
</event>
<event>
 4    1  0.4944208E-021  0.5000050E+01  0.7818608E-02  0.2136455E+00
        -11   -1    0    0    0    0  0.00000000000E+00  0.00000000000E+00  0.50000499739E+01  0.50000500000E+01  0.51100000000E-03 0. -1.
         11   -1    0    0    0    0 -0.00000000000E+00 -0.00000000000E+00 -0.50000499739E+01  0.50000500000E+01  0.51100000000E-03 0.  1.
         50    1    1    2    0    0 -0.82908859737E-02  0.14519367069E-01 -0.14847615623E-01  0.50000500000E+01  0.50000000000E+01 0.  0.
         50    1    1    2    0    0  0.82908859737E-02 -0.14519367069E-01  0.14847615623E-01  0.50000500000E+01  0.50000000000E+01 0. -1.
</event>
<event>
 4    1  0.4944208E-021  0.5000050E+01  0.7818608E-02  0.2136455E+00
        -11   -1    0    0    0    0  0.00000000000E+00  0.00000000000E+00  0.50000499739E+01  0.50000500000E+01  0.51100000000E-03 0. -1.
         11   -1    0    0    0    0 -0.00000000000E+00 -0.00000000000E+00 -0.50000499739E+01  0.50000500000E+01  0.51100000000E-03 0.  1.
         50    1    1    2    0    0 -0.16883165963E-01 -0.76246418012E-02 -0.12523020581E-01  0.50000500000E+01  0.50000000000E+01 0.  1.
         50    1    1    2    0    0  0.16883165963E-01  0.76246418012E-02  0.12523020581E-01  0.50000500000E+01  0.50000000000E+01 0. -1.
</event>
<event>
 4    1  0.4944208E-021  0.5000050E+01  0.7818608E-02  0.2136455E+00
        -11   -1    0    0    0    0  0.00000000000E+00  0.00000000000E+00  0.50000499739E+01  0.50000500000E+01  0.51100000000E-03 0.  1.
         11   -1    0    0    0    0 -0.00000000000E+00 -0.00000000000E+00 -0.50000499739E+01  0.50000500000E+01  0.51100000000E-03 0. -1.
         50    1    1    2    0    0 -0.66877061532E-02 -0.15716939341E-02 -0.21279259023E-01  0.50000500000E+01  0.50000000000E+01 0. -1.
         50    1    1    2    0    0  0.66877061532E-02  0.15716939341E-02  0.21279259023E-01  0.50000500000E+01  0.50000000000E+01 0.  0.
</event>
<event>
 4    1  0.4944208E-021  0.5000050E+01  0.7818608E-02  0.2136455E+00
        -11   -1    0    0    0    0  0.00000000000E+00  0.00000000000E+00  0.50000499739E+01  0.50000500000E+01  0.51100000000E-03 0.  1.
         11   -1    0    0    0    0 -0.00000000000E+00 -0.00000000000E+00 -0.50000499739E+01  0.50000500000E+01  0.51100000000E-03 0. -1.
         50    1    1    2    0    0  0.12220958644E-01 -0.18720367716E-01 -0.44553609960E-03  0.50000500000E+01  0.50000000000E+01 0.  1.
         50    1    1    2    0    0 -0.12220958644E-01  0.18720367716E-01  0.44553609960E-03  0.50000500000E+01  0.50000000000E+01 0.  0.
</event>
<event>
 4    1  0.4944208E-021  0.5000050E+01  0.7818608E-02  0.2136455E+00
        -11   -1    0    0    0    0  0.00000000000E+00  0.00000000000E+00  0.50000499739E+01  0.50000500000E+01  0.51100000000E-03 0. -1.
         11   -1    0    0    0    0 -0.00000000000E+00 -0.00000000000E+00 -0.50000499739E+01  0.50000500000E+01  0.51100000000E-03 0.  1.
         50    1    1    2    0    0  0.26379271629E-02  0.21408872739E-01  0.58910108050E-02  0.50000500000E+01  0.50000000000E+01 0.  0.
         50    1    1    2    0    0 -0.26379271629E-02 -0.21408872739E-01 -0.58910108050E-02  0.50000500000E+01  0.50000000000E+01 0.  0.
</event>
<event>
 4    1  0.4944208E-021  0.5000050E+01  0.7818608E-02  0.2136455E+00
        -11   -1    0    0    0    0  0.00000000000E+00  0.00000000000E+00  0.50000499739E+01  0.50000500000E+01  0.51100000000E-03 0. -1.
         11   -1    0    0    0    0 -0.00000000000E+00 -0.00000000000E+00 -0.50000499739E+01  0.50000500000E+01  0.51100000000E-03 0.  1.
         50    1    1    2    0    0 -0.54160706372E-02 -0.21244027803E-01  0.43999956328E-02  0.50000500000E+01  0.50000000000E+01 0.  0.
         50    1    1    2    0    0  0.54160706372E-02  0.21244027803E-01 -0.43999956328E-02  0.50000500000E+01  0.50000000000E+01 0.  1.
</event>
<event>
 4    1  0.4944208E-021  0.5000050E+01  0.7818608E-02  0.2136455E+00
        -11   -1    0    0    0    0  0.00000000000E+00  0.00000000000E+00  0.50000499739E+01  0.50000500000E+01  0.51100000000E-03 0. -1.
         11   -1    0    0    0    0 -0.00000000000E+00 -0.00000000000E+00 -0.50000499739E+01  0.50000500000E+01  0.51100000000E-03 0.  1.
         50    1    1    2    0    0  0.70557555143E-02  0.19695314073E-01 -0.78938848280E-02  0.50000500000E+01  0.50000000000E+01 0.  1.
         50    1    1    2    0    0 -0.70557555143E-02 -0.19695314073E-01  0.78938848280E-02  0.50000500000E+01  0.50000000000E+01 0. -1.
</event>
<event>
 4    1  0.4944208E-021  0.5000050E+01  0.7818608E-02  0.2136455E+00
        -11   -1    0    0    0    0  0.00000000000E+00  0.00000000000E+00  0.50000499739E+01  0.50000500000E+01  0.51100000000E-03 0.  1.
         11   -1    0    0    0    0 -0.00000000000E+00 -0.00000000000E+00 -0.50000499739E+01  0.50000500000E+01  0.51100000000E-03 0. -1.
         50    1    1    2    0    0 -0.50069349757E-02  0.13163942524E-02 -0.21753165478E-01  0.50000500000E+01  0.50000000000E+01 0.  0.
         50    1    1    2    0    0  0.50069349757E-02 -0.13163942524E-02  0.21753165478E-01  0.50000500000E+01  0.50000000000E+01 0.  1.
</event>
<event>
 4    1  0.4944208E-021  0.5000050E+01  0.7818608E-02  0.2136455E+00
        -11   -1    0    0    0    0  0.00000000000E+00  0.00000000000E+00  0.50000499739E+01  0.50000500000E+01  0.51100000000E-03 0.  1.
         11   -1    0    0    0    0 -0.00000000000E+00 -0.00000000000E+00 -0.50000499739E+01  0.50000500000E+01  0.51100000000E-03 0. -1.
         50    1    1    2    0    0 -0.10172682929E-01 -0.19300861659E-01  0.48985468482E-02  0.50000500000E+01  0.50000000000E+01 0.  1.
         50    1    1    2    0    0  0.10172682929E-01  0.19300861659E-01 -0.48985468482E-02  0.50000500000E+01  0.50000000000E+01 0.  0.
</event>
<event>
 4    1  0.4944208E-021  0.5000050E+01  0.7818608E-02  0.2136455E+00
        -11   -1    0    0    0    0  0.00000000000E+00  0.00000000000E+00  0.50000499739E+01  0.50000500000E+01  0.51100000000E-03 0.  1.
         11   -1    0    0    0    0 -0.00000000000E+00 -0.00000000000E+00 -0.50000499739E+01  0.50000500000E+01  0.51100000000E-03 0. -1.
         50    1    1    2    0    0  0.19500198766E-01 -0.10043680015E-01 -0.43438738305E-02  0.50000500000E+01  0.50000000000E+01 0.  0.
         50    1    1    2    0    0 -0.19500198766E-01  0.10043680015E-01  0.43438738305E-02  0.50000500000E+01  0.50000000000E+01 0. -1.
</event>
<event>
 4    1  0.4944208E-021  0.5000050E+01  0.7818608E-02  0.2136455E+00
        -11   -1    0    0    0    0  0.00000000000E+00  0.00000000000E+00  0.50000499739E+01  0.50000500000E+01  0.51100000000E-03 0.  1.
         11   -1    0    0    0    0 -0.00000000000E+00 -0.00000000000E+00 -0.50000499739E+01  0.50000500000E+01  0.51100000000E-03 0. -1.
         50    1    1    2    0    0  0.11270240889E-01 -0.18510111011E-01  0.55099873557E-02  0.50000500000E+01  0.50000000000E+01 0.  1.
         50    1    1    2    0    0 -0.11270240889E-01  0.18510111011E-01 -0.55099873557E-02  0.50000500000E+01  0.50000000000E+01 0. -1.
</event>
<event>
 4    1  0.4944208E-021  0.5000050E+01  0.7818608E-02  0.2136455E+00
        -11   -1    0    0    0    0  0.00000000000E+00  0.00000000000E+00  0.50000499739E+01  0.50000500000E+01  0.51100000000E-03 0. -1.
         11   -1    0    0    0    0 -0.00000000000E+00 -0.00000000000E+00 -0.50000499739E+01  0.50000500000E+01  0.51100000000E-03 0.  1.
         50    1    1    2    0    0  0.41883745677E-02 -0.16916640679E-01 -0.14010256479E-01  0.50000500000E+01  0.50000000000E+01 0.  0.
         50    1    1    2    0    0 -0.41883745677E-02  0.16916640679E-01  0.14010256479E-01  0.50000500000E+01  0.50000000000E+01 0.  0.
</event>
<event>
 4    1  0.4944208E-021  0.5000050E+01  0.7818608E-02  0.2136455E+00
        -11   -1    0    0    0    0  0.00000000000E+00  0.00000000000E+00  0.50000499739E+01  0.50000500000E+01  0.51100000000E-03 0.  1.
         11   -1    0    0    0    0 -0.00000000000E+00 -0.00000000000E+00 -0.50000499739E+01  0.50000500000E+01  0.51100000000E-03 0. -1.
         50    1    1    2    0    0 -0.89973044460E-02 -0.19192641900E-01 -0.71199374714E-02  0.50000500000E+01  0.50000000000E+01 0.  1.
         50    1    1    2    0    0  0.89973044460E-02  0.19192641900E-01  0.71199374714E-02  0.50000500000E+01  0.50000000000E+01 0.  0.
</event>
<event>
 4    1  0.4944208E-021  0.5000050E+01  0.7818608E-02  0.2136455E+00
        -11   -1    0    0    0    0  0.00000000000E+00  0.00000000000E+00  0.50000499739E+01  0.50000500000E+01  0.51100000000E-03 0. -1.
         11   -1    0    0    0    0 -0.00000000000E+00 -0.00000000000E+00 -0.50000499739E+01  0.50000500000E+01  0.51100000000E-03 0.  1.
         50    1    1    2    0    0 -0.73343984404E-03  0.46566963637E-02 -0.21858173413E-01  0.50000500000E+01  0.50000000000E+01 0.  1.
         50    1    1    2    0    0  0.73343984404E-03 -0.46566963637E-02  0.21858173413E-01  0.50000500000E+01  0.50000000000E+01 0.  0.
</event>
<event>
 4    1  0.4944208E-021  0.5000050E+01  0.7818608E-02  0.2136455E+00
        -11   -1    0    0    0    0  0.00000000000E+00  0.00000000000E+00  0.50000499739E+01  0.50000500000E+01  0.51100000000E-03 0.  1.
         11   -1    0    0    0    0 -0.00000000000E+00 -0.00000000000E+00 -0.50000499739E+01  0.50000500000E+01  0.51100000000E-03 0. -1.
         50    1    1    2    0    0 -0.13867591230E-01  0.45005812305E-02 -0.16953972457E-01  0.50000500000E+01  0.50000000000E+01 0. -1.
         50    1    1    2    0    0  0.13867591230E-01 -0.45005812305E-02  0.16953972457E-01  0.50000500000E+01  0.50000000000E+01 0.  1.
</event>
<event>
 4    1  0.4944208E-021  0.5000050E+01  0.7818608E-02  0.2136455E+00
        -11   -1    0    0    0    0  0.00000000000E+00  0.00000000000E+00  0.50000499739E+01  0.50000500000E+01  0.51100000000E-03 0. -1.
         11   -1    0    0    0    0 -0.00000000000E+00 -0.00000000000E+00 -0.50000499739E+01  0.50000500000E+01  0.51100000000E-03 0.  1.
         50    1    1    2    0    0  0.79805611780E-02 -0.20874595595E-01  0.75126694224E-03  0.50000500000E+01  0.50000000000E+01 0.  1.
         50    1    1    2    0    0 -0.79805611780E-02  0.20874595595E-01 -0.75126694225E-03  0.50000500000E+01  0.50000000000E+01 0. -1.
</event>
<event>
 4    1  0.4944208E-021  0.5000050E+01  0.7818608E-02  0.2136455E+00
        -11   -1    0    0    0    0  0.00000000000E+00  0.00000000000E+00  0.50000499739E+01  0.50000500000E+01  0.51100000000E-03 0. -1.
         11   -1    0    0    0    0 -0.00000000000E+00 -0.00000000000E+00 -0.50000499739E+01  0.50000500000E+01  0.51100000000E-03 0.  1.
         50    1    1    2    0    0  0.20196469432E-01  0.70172324952E-02  0.65470276153E-02  0.50000500000E+01  0.50000000000E+01 0. -1.
         50    1    1    2    0    0 -0.20196469432E-01 -0.70172324952E-02 -0.65470276153E-02  0.50000500000E+01  0.50000000000E+01 0.  1.
</event>
<event>
 4    1  0.4944208E-021  0.5000050E+01  0.7818608E-02  0.2136455E+00
        -11   -1    0    0    0    0  0.00000000000E+00  0.00000000000E+00  0.50000499739E+01  0.50000500000E+01  0.51100000000E-03 0.  1.
         11   -1    0    0    0    0 -0.00000000000E+00 -0.00000000000E+00 -0.50000499739E+01  0.50000500000E+01  0.51100000000E-03 0. -1.
         50    1    1    2    0    0 -0.95497027200E-03  0.18895198111E-01  0.11918977310E-01  0.50000500000E+01  0.50000000000E+01 0.  1.
         50    1    1    2    0    0  0.95497027200E-03 -0.18895198111E-01 -0.11918977310E-01  0.50000500000E+01  0.50000000000E+01 0. -1.
</event>
<event>
 4    1  0.4944208E-021  0.5000050E+01  0.7818608E-02  0.2136455E+00
        -11   -1    0    0    0    0  0.00000000000E+00  0.00000000000E+00  0.50000499739E+01  0.50000500000E+01  0.51100000000E-03 0.  1.
         11   -1    0    0    0    0 -0.00000000000E+00 -0.00000000000E+00 -0.50000499739E+01  0.50000500000E+01  0.51100000000E-03 0. -1.
         50    1    1    2    0    0 -0.13998712343E-01  0.77892965132E-02 -0.15600173479E-01  0.50000500000E+01  0.50000000000E+01 0. -1.
         50    1    1    2    0    0  0.13998712343E-01 -0.77892965132E-02  0.15600173479E-01  0.50000500000E+01  0.50000000000E+01 0.  1.
</event>
<event>
 4    1  0.4944208E-021  0.5000050E+01  0.7818608E-02  0.2136455E+00
        -11   -1    0    0    0    0  0.00000000000E+00  0.00000000000E+00  0.50000499739E+01  0.50000500000E+01  0.51100000000E-03 0. -1.
         11   -1    0    0    0    0 -0.00000000000E+00 -0.00000000000E+00 -0.50000499739E+01  0.50000500000E+01  0.51100000000E-03 0.  1.
         50    1    1    2    0    0  0.19873105307E-01  0.92064280213E-02  0.45059814176E-02  0.50000500000E+01  0.50000000000E+01 0. -1.
         50    1    1    2    0    0 -0.19873105307E-01 -0.92064280213E-02 -0.45059814176E-02  0.50000500000E+01  0.50000000000E+01 0.  1.
</event>
<event>
 4    1  0.4944208E-021  0.5000050E+01  0.7818608E-02  0.2136455E+00
        -11   -1    0    0    0    0  0.00000000000E+00  0.00000000000E+00  0.50000499739E+01  0.50000500000E+01  0.51100000000E-03 0. -1.
         11   -1    0    0    0    0 -0.00000000000E+00 -0.00000000000E+00 -0.50000499739E+01  0.50000500000E+01  0.51100000000E-03 0.  1.
         50    1    1    2    0    0  0.16260092748E-01 -0.29629031331E-03 -0.15346794320E-01  0.50000500000E+01  0.50000000000E+01 0. -1.
         50    1    1    2    0    0 -0.16260092748E-01  0.29629031331E-03  0.15346794320E-01  0.50000500000E+01  0.50000000000E+01 0. -1.
</event>
<event>
 4    1  0.4944208E-021  0.5000050E+01  0.7818608E-02  0.2136455E+00
        -11   -1    0    0    0    0  0.00000000000E+00  0.00000000000E+00  0.50000499739E+01  0.50000500000E+01  0.51100000000E-03 0.  1.
         11   -1    0    0    0    0 -0.00000000000E+00 -0.00000000000E+00 -0.50000499739E+01  0.50000500000E+01  0.51100000000E-03 0. -1.
         50    1    1    2    0    0 -0.15385443896E-01  0.16180688712E-01  0.12148781563E-02  0.50000500000E+01  0.50000000000E+01 0.  0.
         50    1    1    2    0    0  0.15385443896E-01 -0.16180688712E-01 -0.12148781563E-02  0.50000500000E+01  0.50000000000E+01 0.  1.
</event>
<event>
 4    1  0.4944208E-021  0.5000050E+01  0.7818608E-02  0.2136455E+00
        -11   -1    0    0    0    0  0.00000000000E+00  0.00000000000E+00  0.50000499739E+01  0.50000500000E+01  0.51100000000E-03 0. -1.
         11   -1    0    0    0    0 -0.00000000000E+00 -0.00000000000E+00 -0.50000499739E+01  0.50000500000E+01  0.51100000000E-03 0.  1.
         50    1    1    2    0    0 -0.68579433087E-02 -0.20945824739E-01  0.37740614163E-02  0.50000500000E+01  0.50000000000E+01 0.  1.
         50    1    1    2    0    0  0.68579433087E-02  0.20945824739E-01 -0.37740614163E-02  0.50000500000E+01  0.50000000000E+01 0. -1.
</event>
<event>
 4    1  0.4944208E-021  0.5000050E+01  0.7818608E-02  0.2136455E+00
        -11   -1    0    0    0    0  0.00000000000E+00  0.00000000000E+00  0.50000499739E+01  0.50000500000E+01  0.51100000000E-03 0.  1.
         11   -1    0    0    0    0 -0.00000000000E+00 -0.00000000000E+00 -0.50000499739E+01  0.50000500000E+01  0.51100000000E-03 0. -1.
         50    1    1    2    0    0 -0.16235053080E-03  0.18060395396E-01  0.13183256823E-01  0.50000500000E+01  0.50000000000E+01 0.  1.
         50    1    1    2    0    0  0.16235053080E-03 -0.18060395396E-01 -0.13183256823E-01  0.50000500000E+01  0.50000000000E+01 0. -1.
</event>
<event>
 4    1  0.4944208E-021  0.5000050E+01  0.7818608E-02  0.2136455E+00
        -11   -1    0    0    0    0  0.00000000000E+00  0.00000000000E+00  0.50000499739E+01  0.50000500000E+01  0.51100000000E-03 0. -1.
         11   -1    0    0    0    0 -0.00000000000E+00 -0.00000000000E+00 -0.50000499739E+01  0.50000500000E+01  0.51100000000E-03 0.  1.
         50    1    1    2    0    0 -0.33446169530E-02  0.22039925661E-01  0.17486321255E-02  0.50000500000E+01  0.50000000000E+01 0.  0.
         50    1    1    2    0    0  0.33446169530E-02 -0.22039925661E-01 -0.17486321255E-02  0.50000500000E+01  0.50000000000E+01 0. -1.
</event>
<event>
 4    1  0.4944208E-021  0.5000050E+01  0.7818608E-02  0.2136455E+00
        -11   -1    0    0    0    0  0.00000000000E+00  0.00000000000E+00  0.50000499739E+01  0.50000500000E+01  0.51100000000E-03 0.  1.
         11   -1    0    0    0    0 -0.00000000000E+00 -0.00000000000E+00 -0.50000499739E+01  0.50000500000E+01  0.51100000000E-03 0. -1.
         50    1    1    2    0    0  0.10507641241E-01 -0.12464014548E-02 -0.19698691808E-01  0.50000500000E+01  0.50000000000E+01 0.  1.
         50    1    1    2    0    0 -0.10507641241E-01  0.12464014548E-02  0.19698691808E-01  0.50000500000E+01  0.50000000000E+01 0.  0.
</event>
<event>
 4    1  0.4944208E-021  0.5000050E+01  0.7818608E-02  0.2136455E+00
        -11   -1    0    0    0    0  0.00000000000E+00  0.00000000000E+00  0.50000499739E+01  0.50000500000E+01  0.51100000000E-03 0.  1.
         11   -1    0    0    0    0 -0.00000000000E+00 -0.00000000000E+00 -0.50000499739E+01  0.50000500000E+01  0.51100000000E-03 0. -1.
         50    1    1    2    0    0 -0.18169798874E-01 -0.11617180995E-01  0.59077927009E-02  0.50000500000E+01  0.50000000000E+01 0. -1.
         50    1    1    2    0    0  0.18169798874E-01  0.11617180995E-01 -0.59077927009E-02  0.50000500000E+01  0.50000000000E+01 0.  0.
</event>
<event>
 4    1  0.4944208E-021  0.5000050E+01  0.7818608E-02  0.2136455E+00
        -11   -1    0    0    0    0  0.00000000000E+00  0.00000000000E+00  0.50000499739E+01  0.50000500000E+01  0.51100000000E-03 0. -1.
         11   -1    0    0    0    0 -0.00000000000E+00 -0.00000000000E+00 -0.50000499739E+01  0.50000500000E+01  0.51100000000E-03 0.  1.
         50    1    1    2    0    0  0.23828464707E-02  0.22140563470E-01 -0.20297763287E-02  0.50000500000E+01  0.50000000000E+01 0.  0.
         50    1    1    2    0    0 -0.23828464707E-02 -0.22140563470E-01  0.20297763287E-02  0.50000500000E+01  0.50000000000E+01 0.  1.
</event>
<event>
 4    1  0.4944208E-021  0.5000050E+01  0.7818608E-02  0.2136455E+00
        -11   -1    0    0    0    0  0.00000000000E+00  0.00000000000E+00  0.50000499739E+01  0.50000500000E+01  0.51100000000E-03 0.  1.
         11   -1    0    0    0    0 -0.00000000000E+00 -0.00000000000E+00 -0.50000499739E+01  0.50000500000E+01  0.51100000000E-03 0. -1.
         50    1    1    2    0    0 -0.63831966076E-02 -0.76024477216E-02 -0.20036468993E-01  0.50000500000E+01  0.50000000000E+01 0.  0.
         50    1    1    2    0    0  0.63831966076E-02  0.76024477216E-02  0.20036468993E-01  0.50000500000E+01  0.50000000000E+01 0.  1.
</event>
<event>
 4    1  0.4944208E-021  0.5000050E+01  0.7818608E-02  0.2136455E+00
        -11   -1    0    0    0    0  0.00000000000E+00  0.00000000000E+00  0.50000499739E+01  0.50000500000E+01  0.51100000000E-03 0.  1.
         11   -1    0    0    0    0 -0.00000000000E+00 -0.00000000000E+00 -0.50000499739E+01  0.50000500000E+01  0.51100000000E-03 0. -1.
         50    1    1    2    0    0 -0.22296257662E-01 -0.15918024545E-02 -0.58784283171E-03  0.50000500000E+01  0.50000000000E+01 0. -1.
         50    1    1    2    0    0  0.22296257662E-01  0.15918024545E-02  0.58784283171E-03  0.50000500000E+01  0.50000000000E+01 0.  1.
</event>
<event>
 4    1  0.4944208E-021  0.5000050E+01  0.7818608E-02  0.2136455E+00
        -11   -1    0    0    0    0  0.00000000000E+00  0.00000000000E+00  0.50000499739E+01  0.50000500000E+01  0.51100000000E-03 0. -1.
         11   -1    0    0    0    0 -0.00000000000E+00 -0.00000000000E+00 -0.50000499739E+01  0.50000500000E+01  0.51100000000E-03 0.  1.
         50    1    1    2    0    0 -0.12377222482E-01 -0.36344043259E-02  0.18264664487E-01  0.50000500000E+01  0.50000000000E+01 0.  0.
         50    1    1    2    0    0  0.12377222482E-01  0.36344043259E-02 -0.18264664487E-01  0.50000500000E+01  0.50000000000E+01 0.  0.
</event>
<event>
 4    1  0.4944208E-021  0.5000050E+01  0.7818608E-02  0.2136455E+00
        -11   -1    0    0    0    0  0.00000000000E+00  0.00000000000E+00  0.50000499739E+01  0.50000500000E+01  0.51100000000E-03 0. -1.
         11   -1    0    0    0    0 -0.00000000000E+00 -0.00000000000E+00 -0.50000499739E+01  0.50000500000E+01  0.51100000000E-03 0.  1.
         50    1    1    2    0    0  0.39363159138E-02 -0.19002504932E-01 -0.11109127928E-01  0.50000500000E+01  0.50000000000E+01 0.  1.
         50    1    1    2    0    0 -0.39363159138E-02  0.19002504932E-01  0.11109127928E-01  0.50000500000E+01  0.50000000000E+01 0. -1.
</event>
<event>
 4    1  0.4944208E-021  0.5000050E+01  0.7818608E-02  0.2136455E+00
        -11   -1    0    0    0    0  0.00000000000E+00  0.00000000000E+00  0.50000499739E+01  0.50000500000E+01  0.51100000000E-03 0.  1.
         11   -1    0    0    0    0 -0.00000000000E+00 -0.00000000000E+00 -0.50000499739E+01  0.50000500000E+01  0.51100000000E-03 0. -1.
         50    1    1    2    0    0  0.79528186640E-02  0.20724500419E-01 -0.26926302553E-02  0.50000500000E+01  0.50000000000E+01 0.  1.
         50    1    1    2    0    0 -0.79528186640E-02 -0.20724500419E-01  0.26926302553E-02  0.50000500000E+01  0.50000000000E+01 0. -1.
</event>
<event>
 4    1  0.4944208E-021  0.5000050E+01  0.7818608E-02  0.2136455E+00
        -11   -1    0    0    0    0  0.00000000000E+00  0.00000000000E+00  0.50000499739E+01  0.50000500000E+01  0.51100000000E-03 0. -1.
         11   -1    0    0    0    0 -0.00000000000E+00 -0.00000000000E+00 -0.50000499739E+01  0.50000500000E+01  0.51100000000E-03 0.  1.
         50    1    1    2    0    0  0.75338114804E-02 -0.12664458942E-01  0.16818313360E-01  0.50000500000E+01  0.50000000000E+01 0. -1.
         50    1    1    2    0    0 -0.75338114804E-02  0.12664458942E-01 -0.16818313360E-01  0.50000500000E+01  0.50000000000E+01 0.  1.
</event>
<event>
 4    1  0.4944208E-021  0.5000050E+01  0.7818608E-02  0.2136455E+00
        -11   -1    0    0    0    0  0.00000000000E+00  0.00000000000E+00  0.50000499739E+01  0.50000500000E+01  0.51100000000E-03 0. -1.
         11   -1    0    0    0    0 -0.00000000000E+00 -0.00000000000E+00 -0.50000499739E+01  0.50000500000E+01  0.51100000000E-03 0.  1.
         50    1    1    2    0    0  0.19351726467E-01 -0.10122945362E-01 -0.47999124939E-02  0.50000500000E+01  0.50000000000E+01 0. -1.
         50    1    1    2    0    0 -0.19351726467E-01  0.10122945362E-01  0.47999124939E-02  0.50000500000E+01  0.50000000000E+01 0.  1.
</event>
<event>
 4    1  0.4944208E-021  0.5000050E+01  0.7818608E-02  0.2136455E+00
        -11   -1    0    0    0    0  0.00000000000E+00  0.00000000000E+00  0.50000499739E+01  0.50000500000E+01  0.51100000000E-03 0. -1.
         11   -1    0    0    0    0 -0.00000000000E+00 -0.00000000000E+00 -0.50000499739E+01  0.50000500000E+01  0.51100000000E-03 0.  1.
         50    1    1    2    0    0  0.94693007305E-02 -0.19098176896E-01 -0.67523686893E-02  0.50000500000E+01  0.50000000000E+01 0.  1.
         50    1    1    2    0    0 -0.94693007305E-02  0.19098176896E-01  0.67523686893E-02  0.50000500000E+01  0.50000000000E+01 0. -1.
</event>
<event>
 4    1  0.4944208E-021  0.5000050E+01  0.7818608E-02  0.2136455E+00
        -11   -1    0    0    0    0  0.00000000000E+00  0.00000000000E+00  0.50000499739E+01  0.50000500000E+01  0.51100000000E-03 0.  1.
         11   -1    0    0    0    0 -0.00000000000E+00 -0.00000000000E+00 -0.50000499739E+01  0.50000500000E+01  0.51100000000E-03 0. -1.
         50    1    1    2    0    0  0.11786205458E-01  0.11069117775E-01  0.15445468352E-01  0.50000500000E+01  0.50000000000E+01 0. -1.
         50    1    1    2    0    0 -0.11786205458E-01 -0.11069117775E-01 -0.15445468352E-01  0.50000500000E+01  0.50000000000E+01 0.  0.
</event>
<event>
 4    1  0.4944208E-021  0.5000050E+01  0.7818608E-02  0.2136455E+00
        -11   -1    0    0    0    0  0.00000000000E+00  0.00000000000E+00  0.50000499739E+01  0.50000500000E+01  0.51100000000E-03 0.  1.
         11   -1    0    0    0    0 -0.00000000000E+00 -0.00000000000E+00 -0.50000499739E+01  0.50000500000E+01  0.51100000000E-03 0. -1.
         50    1    1    2    0    0 -0.65882800812E-02  0.17421623671E-01 -0.12372715718E-01  0.50000500000E+01  0.50000000000E+01 0.  0.
         50    1    1    2    0    0  0.65882800812E-02 -0.17421623671E-01  0.12372715718E-01  0.50000500000E+01  0.50000000000E+01 0.  0.
</event>
<event>
 4    1  0.4944208E-021  0.5000050E+01  0.7818608E-02  0.2136455E+00
        -11   -1    0    0    0    0  0.00000000000E+00  0.00000000000E+00  0.50000499739E+01  0.50000500000E+01  0.51100000000E-03 0.  1.
         11   -1    0    0    0    0 -0.00000000000E+00 -0.00000000000E+00 -0.50000499739E+01  0.50000500000E+01  0.51100000000E-03 0. -1.
         50    1    1    2    0    0 -0.19144397036E-01 -0.25349081656E-02 -0.11272479882E-01  0.50000500000E+01  0.50000000000E+01 0.  0.
         50    1    1    2    0    0  0.19144397036E-01  0.25349081656E-02  0.11272479882E-01  0.50000500000E+01  0.50000000000E+01 0. -1.
</event>
<event>
 4    1  0.4944208E-021  0.5000050E+01  0.7818608E-02  0.2136455E+00
        -11   -1    0    0    0    0  0.00000000000E+00  0.00000000000E+00  0.50000499739E+01  0.50000500000E+01  0.51100000000E-03 0.  1.
         11   -1    0    0    0    0 -0.00000000000E+00 -0.00000000000E+00 -0.50000499739E+01  0.50000500000E+01  0.51100000000E-03 0. -1.
         50    1    1    2    0    0  0.14967189871E-01  0.88298797298E-02  0.14071920669E-01  0.50000500000E+01  0.50000000000E+01 0.  0.
         50    1    1    2    0    0 -0.14967189871E-01 -0.88298797298E-02 -0.14071920669E-01  0.50000500000E+01  0.50000000000E+01 0.  0.
</event>
<event>
 4    1  0.4944208E-021  0.5000050E+01  0.7818608E-02  0.2136455E+00
        -11   -1    0    0    0    0  0.00000000000E+00  0.00000000000E+00  0.50000499739E+01  0.50000500000E+01  0.51100000000E-03 0. -1.
         11   -1    0    0    0    0 -0.00000000000E+00 -0.00000000000E+00 -0.50000499739E+01  0.50000500000E+01  0.51100000000E-03 0.  1.
         50    1    1    2    0    0  0.16240851775E-01 -0.40472952330E-02  0.14827563350E-01  0.50000500000E+01  0.50000000000E+01 0. -1.
         50    1    1    2    0    0 -0.16240851775E-01  0.40472952330E-02 -0.14827563350E-01  0.50000500000E+01  0.50000000000E+01 0.  1.
</event>
<event>
 4    1  0.4944208E-021  0.5000050E+01  0.7818608E-02  0.2136455E+00
        -11   -1    0    0    0    0  0.00000000000E+00  0.00000000000E+00  0.50000499739E+01  0.50000500000E+01  0.51100000000E-03 0. -1.
         11   -1    0    0    0    0 -0.00000000000E+00 -0.00000000000E+00 -0.50000499739E+01  0.50000500000E+01  0.51100000000E-03 0.  1.
         50    1    1    2    0    0 -0.17188619109E-01  0.63316809495E-02 -0.12824339729E-01  0.50000500000E+01  0.50000000000E+01 0.  0.
         50    1    1    2    0    0  0.17188619109E-01 -0.63316809495E-02  0.12824339729E-01  0.50000500000E+01  0.50000000000E+01 0.  0.
</event>
<event>
 4    1  0.4944208E-021  0.5000050E+01  0.7818608E-02  0.2136455E+00
        -11   -1    0    0    0    0  0.00000000000E+00  0.00000000000E+00  0.50000499739E+01  0.50000500000E+01  0.51100000000E-03 0.  1.
         11   -1    0    0    0    0 -0.00000000000E+00 -0.00000000000E+00 -0.50000499739E+01  0.50000500000E+01  0.51100000000E-03 0. -1.
         50    1    1    2    0    0  0.14712689618E-01  0.16715338197E-01 -0.20338960566E-02  0.50000500000E+01  0.50000000000E+01 0. -1.
         50    1    1    2    0    0 -0.14712689618E-01 -0.16715338197E-01  0.20338960566E-02  0.50000500000E+01  0.50000000000E+01 0.  0.
</event>
<event>
 4    1  0.4944208E-021  0.5000050E+01  0.7818608E-02  0.2136455E+00
        -11   -1    0    0    0    0  0.00000000000E+00  0.00000000000E+00  0.50000499739E+01  0.50000500000E+01  0.51100000000E-03 0.  1.
         11   -1    0    0    0    0 -0.00000000000E+00 -0.00000000000E+00 -0.50000499739E+01  0.50000500000E+01  0.51100000000E-03 0. -1.
         50    1    1    2    0    0 -0.10775069363E-01 -0.16137523937E-01  0.11112187066E-01  0.50000500000E+01  0.50000000000E+01 0.  1.
         50    1    1    2    0    0  0.10775069363E-01  0.16137523937E-01 -0.11112187066E-01  0.50000500000E+01  0.50000000000E+01 0. -1.
</event>
<event>
 4    1  0.4944208E-021  0.5000050E+01  0.7818608E-02  0.2136455E+00
        -11   -1    0    0    0    0  0.00000000000E+00  0.00000000000E+00  0.50000499739E+01  0.50000500000E+01  0.51100000000E-03 0.  1.
         11   -1    0    0    0    0 -0.00000000000E+00 -0.00000000000E+00 -0.50000499739E+01  0.50000500000E+01  0.51100000000E-03 0. -1.
         50    1    1    2    0    0 -0.18277090907E-01  0.18526488434E-02  0.12748260283E-01  0.50000500000E+01  0.50000000000E+01 0. -1.
         50    1    1    2    0    0  0.18277090907E-01 -0.18526488434E-02 -0.12748260283E-01  0.50000500000E+01  0.50000000000E+01 0. -1.
</event>
<event>
 4    1  0.4944208E-021  0.5000050E+01  0.7818608E-02  0.2136455E+00
        -11   -1    0    0    0    0  0.00000000000E+00  0.00000000000E+00  0.50000499739E+01  0.50000500000E+01  0.51100000000E-03 0. -1.
         11   -1    0    0    0    0 -0.00000000000E+00 -0.00000000000E+00 -0.50000499739E+01  0.50000500000E+01  0.51100000000E-03 0.  1.
         50    1    1    2    0    0  0.12757489479E-01  0.12096622606E-01 -0.13817405101E-01  0.50000500000E+01  0.50000000000E+01 0.  1.
         50    1    1    2    0    0 -0.12757489479E-01 -0.12096622606E-01  0.13817405101E-01  0.50000500000E+01  0.50000000000E+01 0. -1.
</event>
<event>
 4    1  0.4944208E-021  0.5000050E+01  0.7818608E-02  0.2136455E+00
        -11   -1    0    0    0    0  0.00000000000E+00  0.00000000000E+00  0.50000499739E+01  0.50000500000E+01  0.51100000000E-03 0.  1.
         11   -1    0    0    0    0 -0.00000000000E+00 -0.00000000000E+00 -0.50000499739E+01  0.50000500000E+01  0.51100000000E-03 0. -1.
         50    1    1    2    0    0 -0.44182254732E-02 -0.48649191474E-02 -0.21373215606E-01  0.50000500000E+01  0.50000000000E+01 0. -1.
         50    1    1    2    0    0  0.44182254732E-02  0.48649191474E-02  0.21373215606E-01  0.50000500000E+01  0.50000000000E+01 0.  0.
</event>
<event>
 4    1  0.4944208E-021  0.5000050E+01  0.7818608E-02  0.2136455E+00
        -11   -1    0    0    0    0  0.00000000000E+00  0.00000000000E+00  0.50000499739E+01  0.50000500000E+01  0.51100000000E-03 0. -1.
         11   -1    0    0    0    0 -0.00000000000E+00 -0.00000000000E+00 -0.50000499739E+01  0.50000500000E+01  0.51100000000E-03 0.  1.
         50    1    1    2    0    0 -0.10954554425E-01  0.11183388203E-01 -0.15966592174E-01  0.50000500000E+01  0.50000000000E+01 0.  1.
         50    1    1    2    0    0  0.10954554425E-01 -0.11183388203E-01  0.15966592174E-01  0.50000500000E+01  0.50000000000E+01 0.  0.
</event>
<event>
 4    1  0.4944208E-021  0.5000050E+01  0.7818608E-02  0.2136455E+00
        -11   -1    0    0    0    0  0.00000000000E+00  0.00000000000E+00  0.50000499739E+01  0.50000500000E+01  0.51100000000E-03 0.  1.
         11   -1    0    0    0    0 -0.00000000000E+00 -0.00000000000E+00 -0.50000499739E+01  0.50000500000E+01  0.51100000000E-03 0. -1.
         50    1    1    2    0    0 -0.14848207092E-01 -0.14868608034E-01 -0.76457662323E-02  0.50000500000E+01  0.50000000000E+01 0. -1.
         50    1    1    2    0    0  0.14848207092E-01  0.14868608034E-01  0.76457662323E-02  0.50000500000E+01  0.50000000000E+01 0. -1.
</event>
<event>
 4    1  0.4944208E-021  0.5000050E+01  0.7818608E-02  0.2136455E+00
        -11   -1    0    0    0    0  0.00000000000E+00  0.00000000000E+00  0.50000499739E+01  0.50000500000E+01  0.51100000000E-03 0. -1.
         11   -1    0    0    0    0 -0.00000000000E+00 -0.00000000000E+00 -0.50000499739E+01  0.50000500000E+01  0.51100000000E-03 0.  1.
         50    1    1    2    0    0 -0.73384378163E-02 -0.21119356112E-01  0.35018258281E-03  0.50000500000E+01  0.50000000000E+01 0. -1.
         50    1    1    2    0    0  0.73384378163E-02  0.21119356112E-01 -0.35018258281E-03  0.50000500000E+01  0.50000000000E+01 0.  1.
</event>
<event>
 4    1  0.4944208E-021  0.5000050E+01  0.7818608E-02  0.2136455E+00
        -11   -1    0    0    0    0  0.00000000000E+00  0.00000000000E+00  0.50000499739E+01  0.50000500000E+01  0.51100000000E-03 0. -1.
         11   -1    0    0    0    0 -0.00000000000E+00 -0.00000000000E+00 -0.50000499739E+01  0.50000500000E+01  0.51100000000E-03 0.  1.
         50    1    1    2    0    0 -0.62429752669E-02  0.13803791740E-01 -0.16446370220E-01  0.50000500000E+01  0.50000000000E+01 0.  1.
         50    1    1    2    0    0  0.62429752669E-02 -0.13803791740E-01  0.16446370220E-01  0.50000500000E+01  0.50000000000E+01 0. -1.
</event>
<event>
 4    1  0.4944208E-021  0.5000050E+01  0.7818608E-02  0.2136455E+00
        -11   -1    0    0    0    0  0.00000000000E+00  0.00000000000E+00  0.50000499739E+01  0.50000500000E+01  0.51100000000E-03 0. -1.
         11   -1    0    0    0    0 -0.00000000000E+00 -0.00000000000E+00 -0.50000499739E+01  0.50000500000E+01  0.51100000000E-03 0.  1.
         50    1    1    2    0    0  0.69165088996E-02  0.11027818724E-01  0.18181078593E-01  0.50000500000E+01  0.50000000000E+01 0.  0.
         50    1    1    2    0    0 -0.69165088996E-02 -0.11027818724E-01 -0.18181078593E-01  0.50000500000E+01  0.50000000000E+01 0.  0.
</event>
<event>
 4    1  0.4944208E-021  0.5000050E+01  0.7818608E-02  0.2136455E+00
        -11   -1    0    0    0    0  0.00000000000E+00  0.00000000000E+00  0.50000499739E+01  0.50000500000E+01  0.51100000000E-03 0. -1.
         11   -1    0    0    0    0 -0.00000000000E+00 -0.00000000000E+00 -0.50000499739E+01  0.50000500000E+01  0.51100000000E-03 0.  1.
         50    1    1    2    0    0  0.28440749184E-02 -0.22149344210E-01 -0.11490382577E-02  0.50000500000E+01  0.50000000000E+01 0. -1.
         50    1    1    2    0    0 -0.28440749184E-02  0.22149344210E-01  0.11490382577E-02  0.50000500000E+01  0.50000000000E+01 0.  1.
</event>
<event>
 4    1  0.4944208E-021  0.5000050E+01  0.7818608E-02  0.2136455E+00
        -11   -1    0    0    0    0  0.00000000000E+00  0.00000000000E+00  0.50000499739E+01  0.50000500000E+01  0.51100000000E-03 0.  1.
         11   -1    0    0    0    0 -0.00000000000E+00 -0.00000000000E+00 -0.50000499739E+01  0.50000500000E+01  0.51100000000E-03 0. -1.
         50    1    1    2    0    0  0.10311265480E-01 -0.29675305893E-02  0.19618207523E-01  0.50000500000E+01  0.50000000000E+01 0.  0.
         50    1    1    2    0    0 -0.10311265480E-01  0.29675305893E-02 -0.19618207523E-01  0.50000500000E+01  0.50000000000E+01 0.  0.
</event>
<event>
 4    1  0.4944208E-021  0.5000050E+01  0.7818608E-02  0.2136455E+00
        -11   -1    0    0    0    0  0.00000000000E+00  0.00000000000E+00  0.50000499739E+01  0.50000500000E+01  0.51100000000E-03 0. -1.
         11   -1    0    0    0    0 -0.00000000000E+00 -0.00000000000E+00 -0.50000499739E+01  0.50000500000E+01  0.51100000000E-03 0.  1.
         50    1    1    2    0    0  0.16939976979E-02 -0.10343419019E-01 -0.19752127855E-01  0.50000500000E+01  0.50000000000E+01 0.  0.
         50    1    1    2    0    0 -0.16939976979E-02  0.10343419019E-01  0.19752127855E-01  0.50000500000E+01  0.50000000000E+01 0. -1.
</event>
<event>
 4    1  0.4944208E-021  0.5000050E+01  0.7818608E-02  0.2136455E+00
        -11   -1    0    0    0    0  0.00000000000E+00  0.00000000000E+00  0.50000499739E+01  0.50000500000E+01  0.51100000000E-03 0.  1.
         11   -1    0    0    0    0 -0.00000000000E+00 -0.00000000000E+00 -0.50000499739E+01  0.50000500000E+01  0.51100000000E-03 0. -1.
         50    1    1    2    0    0  0.12624459514E-01 -0.38565696855E-02  0.18048611920E-01  0.50000500000E+01  0.50000000000E+01 0.  0.
         50    1    1    2    0    0 -0.12624459514E-01  0.38565696855E-02 -0.18048611920E-01  0.50000500000E+01  0.50000000000E+01 0. -1.
</event>
<event>
 4    1  0.4944208E-021  0.5000050E+01  0.7818608E-02  0.2136455E+00
        -11   -1    0    0    0    0  0.00000000000E+00  0.00000000000E+00  0.50000499739E+01  0.50000500000E+01  0.51100000000E-03 0. -1.
         11   -1    0    0    0    0 -0.00000000000E+00 -0.00000000000E+00 -0.50000499739E+01  0.50000500000E+01  0.51100000000E-03 0.  1.
         50    1    1    2    0    0  0.49235028627E-02 -0.18946014613E-01  0.10807874437E-01  0.50000500000E+01  0.50000000000E+01 0. -1.
         50    1    1    2    0    0 -0.49235028627E-02  0.18946014613E-01 -0.10807874437E-01  0.50000500000E+01  0.50000000000E+01 0.  1.
</event>
<event>
 4    1  0.4944208E-021  0.5000050E+01  0.7818608E-02  0.2136455E+00
        -11   -1    0    0    0    0  0.00000000000E+00  0.00000000000E+00  0.50000499739E+01  0.50000500000E+01  0.51100000000E-03 0. -1.
         11   -1    0    0    0    0 -0.00000000000E+00 -0.00000000000E+00 -0.50000499739E+01  0.50000500000E+01  0.51100000000E-03 0.  1.
         50    1    1    2    0    0 -0.20524756837E-01  0.32568163168E-02  0.82540901523E-02  0.50000500000E+01  0.50000000000E+01 0.  0.
         50    1    1    2    0    0  0.20524756837E-01 -0.32568163168E-02 -0.82540901523E-02  0.50000500000E+01  0.50000000000E+01 0.  0.
</event>
<event>
 4    1  0.4944208E-021  0.5000050E+01  0.7818608E-02  0.2136455E+00
        -11   -1    0    0    0    0  0.00000000000E+00  0.00000000000E+00  0.50000499739E+01  0.50000500000E+01  0.51100000000E-03 0. -1.
         11   -1    0    0    0    0 -0.00000000000E+00 -0.00000000000E+00 -0.50000499739E+01  0.50000500000E+01  0.51100000000E-03 0.  1.
         50    1    1    2    0    0  0.10622401300E-01 -0.15140463050E-01 -0.12567158360E-01  0.50000500000E+01  0.50000000000E+01 0.  0.
         50    1    1    2    0    0 -0.10622401300E-01  0.15140463050E-01  0.12567158360E-01  0.50000500000E+01  0.50000000000E+01 0.  0.
</event>
<event>
 4    1  0.4944208E-021  0.5000050E+01  0.7818608E-02  0.2136455E+00
        -11   -1    0    0    0    0  0.00000000000E+00  0.00000000000E+00  0.50000499739E+01  0.50000500000E+01  0.51100000000E-03 0.  1.
         11   -1    0    0    0    0 -0.00000000000E+00 -0.00000000000E+00 -0.50000499739E+01  0.50000500000E+01  0.51100000000E-03 0. -1.
         50    1    1    2    0    0  0.21470898584E-01 -0.44972713170E-03 -0.62290255667E-02  0.50000500000E+01  0.50000000000E+01 0. -1.
         50    1    1    2    0    0 -0.21470898584E-01  0.44972713170E-03  0.62290255667E-02  0.50000500000E+01  0.50000000000E+01 0.  1.
</event>
<event>
 4    1  0.4944208E-021  0.5000050E+01  0.7818608E-02  0.2136455E+00
        -11   -1    0    0    0    0  0.00000000000E+00  0.00000000000E+00  0.50000499739E+01  0.50000500000E+01  0.51100000000E-03 0.  1.
         11   -1    0    0    0    0 -0.00000000000E+00 -0.00000000000E+00 -0.50000499739E+01  0.50000500000E+01  0.51100000000E-03 0. -1.
         50    1    1    2    0    0  0.13087889511E-01 -0.49918590718E-02 -0.17429601004E-01  0.50000500000E+01  0.50000000000E+01 0.  0.
         50    1    1    2    0    0 -0.13087889511E-01  0.49918590718E-02  0.17429601004E-01  0.50000500000E+01  0.50000000000E+01 0.  0.
</event>
<event>
 4    1  0.4944208E-021  0.5000050E+01  0.7818608E-02  0.2136455E+00
        -11   -1    0    0    0    0  0.00000000000E+00  0.00000000000E+00  0.50000499739E+01  0.50000500000E+01  0.51100000000E-03 0. -1.
         11   -1    0    0    0    0 -0.00000000000E+00 -0.00000000000E+00 -0.50000499739E+01  0.50000500000E+01  0.51100000000E-03 0.  1.
         50    1    1    2    0    0  0.48081308620E-02  0.10333690088E-01 -0.19237963166E-01  0.50000500000E+01  0.50000000000E+01 0.  0.
         50    1    1    2    0    0 -0.48081308620E-02 -0.10333690088E-01  0.19237963166E-01  0.50000500000E+01  0.50000000000E+01 0. -1.
</event>
<event>
 4    1  0.4944208E-021  0.5000050E+01  0.7818608E-02  0.2136455E+00
        -11   -1    0    0    0    0  0.00000000000E+00  0.00000000000E+00  0.50000499739E+01  0.50000500000E+01  0.51100000000E-03 0. -1.
         11   -1    0    0    0    0 -0.00000000000E+00 -0.00000000000E+00 -0.50000499739E+01  0.50000500000E+01  0.51100000000E-03 0.  1.
         50    1    1    2    0    0 -0.18500862538E-01  0.32849008371E-02  0.12121469046E-01  0.50000500000E+01  0.50000000000E+01 0. -1.
         50    1    1    2    0    0  0.18500862538E-01 -0.32849008371E-02 -0.12121469046E-01  0.50000500000E+01  0.50000000000E+01 0.  1.
</event>
<event>
 4    1  0.4944208E-021  0.5000050E+01  0.7818608E-02  0.2136455E+00
        -11   -1    0    0    0    0  0.00000000000E+00  0.00000000000E+00  0.50000499739E+01  0.50000500000E+01  0.51100000000E-03 0. -1.
         11   -1    0    0    0    0 -0.00000000000E+00 -0.00000000000E+00 -0.50000499739E+01  0.50000500000E+01  0.51100000000E-03 0.  1.
         50    1    1    2    0    0 -0.49412258544E-02  0.10237786738E-01 -0.19255505960E-01  0.50000500000E+01  0.50000000000E+01 0.  0.
         50    1    1    2    0    0  0.49412258544E-02 -0.10237786738E-01  0.19255505960E-01  0.50000500000E+01  0.50000000000E+01 0.  0.
</event>
<event>
 4    1  0.4944208E-021  0.5000050E+01  0.7818608E-02  0.2136455E+00
        -11   -1    0    0    0    0  0.00000000000E+00  0.00000000000E+00  0.50000499739E+01  0.50000500000E+01  0.51100000000E-03 0. -1.
         11   -1    0    0    0    0 -0.00000000000E+00 -0.00000000000E+00 -0.50000499739E+01  0.50000500000E+01  0.51100000000E-03 0.  1.
         50    1    1    2    0    0 -0.20736531052E-01  0.65685313905E-02 -0.51820049515E-02  0.50000500000E+01  0.50000000000E+01 0. -1.
         50    1    1    2    0    0  0.20736531052E-01 -0.65685313905E-02  0.51820049515E-02  0.50000500000E+01  0.50000000000E+01 0.  1.
</event>
<event>
 4    1  0.4944208E-021  0.5000050E+01  0.7818608E-02  0.2136455E+00
        -11   -1    0    0    0    0  0.00000000000E+00  0.00000000000E+00  0.50000499739E+01  0.50000500000E+01  0.51100000000E-03 0. -1.
         11   -1    0    0    0    0 -0.00000000000E+00 -0.00000000000E+00 -0.50000499739E+01  0.50000500000E+01  0.51100000000E-03 0.  1.
         50    1    1    2    0    0 -0.12029868577E-01 -0.18723285808E-01 -0.21733224691E-02  0.50000500000E+01  0.50000000000E+01 0.  1.
         50    1    1    2    0    0  0.12029868577E-01  0.18723285808E-01  0.21733224691E-02  0.50000500000E+01  0.50000000000E+01 0. -1.
</event>
<event>
 4    1  0.4944208E-021  0.5000050E+01  0.7818608E-02  0.2136455E+00
        -11   -1    0    0    0    0  0.00000000000E+00  0.00000000000E+00  0.50000499739E+01  0.50000500000E+01  0.51100000000E-03 0. -1.
         11   -1    0    0    0    0 -0.00000000000E+00 -0.00000000000E+00 -0.50000499739E+01  0.50000500000E+01  0.51100000000E-03 0.  1.
         50    1    1    2    0    0  0.18317868754E-01 -0.12812658882E-01  0.54217772058E-03  0.50000500000E+01  0.50000000000E+01 0.  0.
         50    1    1    2    0    0 -0.18317868754E-01  0.12812658882E-01 -0.54217772058E-03  0.50000500000E+01  0.50000000000E+01 0. -1.
</event>
<event>
 4    1  0.4944208E-021  0.5000050E+01  0.7818608E-02  0.2136455E+00
        -11   -1    0    0    0    0  0.00000000000E+00  0.00000000000E+00  0.50000499739E+01  0.50000500000E+01  0.51100000000E-03 0.  1.
         11   -1    0    0    0    0 -0.00000000000E+00 -0.00000000000E+00 -0.50000499739E+01  0.50000500000E+01  0.51100000000E-03 0. -1.
         50    1    1    2    0    0 -0.67703373683E-02 -0.73356705419E-02  0.20008822295E-01  0.50000500000E+01  0.50000000000E+01 0.  1.
         50    1    1    2    0    0  0.67703373683E-02  0.73356705419E-02 -0.20008822295E-01  0.50000500000E+01  0.50000000000E+01 0.  0.
</event>
<event>
 4    1  0.4944208E-021  0.5000050E+01  0.7818608E-02  0.2136455E+00
        -11   -1    0    0    0    0  0.00000000000E+00  0.00000000000E+00  0.50000499739E+01  0.50000500000E+01  0.51100000000E-03 0. -1.
         11   -1    0    0    0    0 -0.00000000000E+00 -0.00000000000E+00 -0.50000499739E+01  0.50000500000E+01  0.51100000000E-03 0.  1.
         50    1    1    2    0    0  0.60610760999E-02  0.48142080716E-02 -0.20978304439E-01  0.50000500000E+01  0.50000000000E+01 0.  0.
         50    1    1    2    0    0 -0.60610760999E-02 -0.48142080716E-02  0.20978304439E-01  0.50000500000E+01  0.50000000000E+01 0.  0.
</event>
<event>
 4    1  0.4944208E-021  0.5000050E+01  0.7818608E-02  0.2136455E+00
        -11   -1    0    0    0    0  0.00000000000E+00  0.00000000000E+00  0.50000499739E+01  0.50000500000E+01  0.51100000000E-03 0. -1.
         11   -1    0    0    0    0 -0.00000000000E+00 -0.00000000000E+00 -0.50000499739E+01  0.50000500000E+01  0.51100000000E-03 0.  1.
         50    1    1    2    0    0 -0.25165290775E-02 -0.18166858307E-01 -0.12791983452E-01  0.50000500000E+01  0.50000000000E+01 0.  0.
         50    1    1    2    0    0  0.25165290775E-02  0.18166858307E-01  0.12791983452E-01  0.50000500000E+01  0.50000000000E+01 0.  0.
</event>
<event>
 4    1  0.4944208E-021  0.5000050E+01  0.7818608E-02  0.2136455E+00
        -11   -1    0    0    0    0  0.00000000000E+00  0.00000000000E+00  0.50000499739E+01  0.50000500000E+01  0.51100000000E-03 0.  1.
         11   -1    0    0    0    0 -0.00000000000E+00 -0.00000000000E+00 -0.50000499739E+01  0.50000500000E+01  0.51100000000E-03 0. -1.
         50    1    1    2    0    0  0.49652264249E-02  0.90643736204E-02  0.19828922245E-01  0.50000500000E+01  0.50000000000E+01 0.  0.
         50    1    1    2    0    0 -0.49652264249E-02 -0.90643736204E-02 -0.19828922245E-01  0.50000500000E+01  0.50000000000E+01 0. -1.
</event>
<event>
 4    1  0.4944208E-021  0.5000050E+01  0.7818608E-02  0.2136455E+00
        -11   -1    0    0    0    0  0.00000000000E+00  0.00000000000E+00  0.50000499739E+01  0.50000500000E+01  0.51100000000E-03 0.  1.
         11   -1    0    0    0    0 -0.00000000000E+00 -0.00000000000E+00 -0.50000499739E+01  0.50000500000E+01  0.51100000000E-03 0. -1.
         50    1    1    2    0    0  0.12656190358E-01  0.14169378663E-01  0.11792033494E-01  0.50000500000E+01  0.50000000000E+01 0.  1.
         50    1    1    2    0    0 -0.12656190358E-01 -0.14169378663E-01 -0.11792033494E-01  0.50000500000E+01  0.50000000000E+01 0. -1.
</event>
<event>
 4    1  0.4944208E-021  0.5000050E+01  0.7818608E-02  0.2136455E+00
        -11   -1    0    0    0    0  0.00000000000E+00  0.00000000000E+00  0.50000499739E+01  0.50000500000E+01  0.51100000000E-03 0.  1.
         11   -1    0    0    0    0 -0.00000000000E+00 -0.00000000000E+00 -0.50000499739E+01  0.50000500000E+01  0.51100000000E-03 0. -1.
         50    1    1    2    0    0 -0.77758896950E-02 -0.85086355616E-02  0.19160927961E-01  0.50000500000E+01  0.50000000000E+01 0.  0.
         50    1    1    2    0    0  0.77758896950E-02  0.85086355616E-02 -0.19160927961E-01  0.50000500000E+01  0.50000000000E+01 0. -1.
</event>
<event>
 4    1  0.4944208E-021  0.5000050E+01  0.7818608E-02  0.2136455E+00
        -11   -1    0    0    0    0  0.00000000000E+00  0.00000000000E+00  0.50000499739E+01  0.50000500000E+01  0.51100000000E-03 0. -1.
         11   -1    0    0    0    0 -0.00000000000E+00 -0.00000000000E+00 -0.50000499739E+01  0.50000500000E+01  0.51100000000E-03 0.  1.
         50    1    1    2    0    0  0.63951247394E-02 -0.18051536877E-01 -0.11543261928E-01  0.50000500000E+01  0.50000000000E+01 0. -1.
         50    1    1    2    0    0 -0.63951247394E-02  0.18051536877E-01  0.11543261928E-01  0.50000500000E+01  0.50000000000E+01 0.  1.
</event>
<event>
 4    1  0.4944208E-021  0.5000050E+01  0.7818608E-02  0.2136455E+00
        -11   -1    0    0    0    0  0.00000000000E+00  0.00000000000E+00  0.50000499739E+01  0.50000500000E+01  0.51100000000E-03 0.  1.
         11   -1    0    0    0    0 -0.00000000000E+00 -0.00000000000E+00 -0.50000499739E+01  0.50000500000E+01  0.51100000000E-03 0. -1.
         50    1    1    2    0    0  0.75728057815E-02 -0.12523574563E-01 -0.16906069702E-01  0.50000500000E+01  0.50000000000E+01 0.  0.
         50    1    1    2    0    0 -0.75728057815E-02  0.12523574563E-01  0.16906069702E-01  0.50000500000E+01  0.50000000000E+01 0.  0.
</event>
<event>
 4    1  0.4944208E-021  0.5000050E+01  0.7818608E-02  0.2136455E+00
        -11   -1    0    0    0    0  0.00000000000E+00  0.00000000000E+00  0.50000499739E+01  0.50000500000E+01  0.51100000000E-03 0. -1.
         11   -1    0    0    0    0 -0.00000000000E+00 -0.00000000000E+00 -0.50000499739E+01  0.50000500000E+01  0.51100000000E-03 0.  1.
         50    1    1    2    0    0  0.10311111277E-01 -0.19469941375E-01  0.38216314691E-02  0.50000500000E+01  0.50000000000E+01 0.  0.
         50    1    1    2    0    0 -0.10311111277E-01  0.19469941375E-01 -0.38216314691E-02  0.50000500000E+01  0.50000000000E+01 0.  0.
</event>
<event>
 4    1  0.4944208E-021  0.5000050E+01  0.7818608E-02  0.2136455E+00
        -11   -1    0    0    0    0  0.00000000000E+00  0.00000000000E+00  0.50000499739E+01  0.50000500000E+01  0.51100000000E-03 0.  1.
         11   -1    0    0    0    0 -0.00000000000E+00 -0.00000000000E+00 -0.50000499739E+01  0.50000500000E+01  0.51100000000E-03 0. -1.
         50    1    1    2    0    0 -0.75722412669E-02 -0.83379886997E-02 -0.19316873625E-01  0.50000500000E+01  0.50000000000E+01 0.  0.
         50    1    1    2    0    0  0.75722412669E-02  0.83379886997E-02  0.19316873625E-01  0.50000500000E+01  0.50000000000E+01 0.  0.
</event>
<event>
 4    1  0.4944208E-021  0.5000050E+01  0.7818608E-02  0.2136455E+00
        -11   -1    0    0    0    0  0.00000000000E+00  0.00000000000E+00  0.50000499739E+01  0.50000500000E+01  0.51100000000E-03 0. -1.
         11   -1    0    0    0    0 -0.00000000000E+00 -0.00000000000E+00 -0.50000499739E+01  0.50000500000E+01  0.51100000000E-03 0.  1.
         50    1    1    2    0    0  0.26702058468E-02 -0.22031882155E-01  0.27328866498E-02  0.50000500000E+01  0.50000000000E+01 0.  0.
         50    1    1    2    0    0 -0.26702058468E-02  0.22031882155E-01 -0.27328866498E-02  0.50000500000E+01  0.50000000000E+01 0.  1.
</event>
<event>
 4    1  0.4944208E-021  0.5000050E+01  0.7818608E-02  0.2136455E+00
        -11   -1    0    0    0    0  0.00000000000E+00  0.00000000000E+00  0.50000499739E+01  0.50000500000E+01  0.51100000000E-03 0. -1.
         11   -1    0    0    0    0 -0.00000000000E+00 -0.00000000000E+00 -0.50000499739E+01  0.50000500000E+01  0.51100000000E-03 0.  1.
         50    1    1    2    0    0  0.12299493725E-01  0.16216124404E-01 -0.92607917277E-02  0.50000500000E+01  0.50000000000E+01 0.  0.
         50    1    1    2    0    0 -0.12299493725E-01 -0.16216124404E-01  0.92607917277E-02  0.50000500000E+01  0.50000000000E+01 0.  0.
</event>
<event>
 4    1  0.4944208E-021  0.5000050E+01  0.7818608E-02  0.2136455E+00
        -11   -1    0    0    0    0  0.00000000000E+00  0.00000000000E+00  0.50000499739E+01  0.50000500000E+01  0.51100000000E-03 0. -1.
         11   -1    0    0    0    0 -0.00000000000E+00 -0.00000000000E+00 -0.50000499739E+01  0.50000500000E+01  0.51100000000E-03 0.  1.
         50    1    1    2    0    0 -0.17767010094E-01 -0.12732452233E-01  0.47138638558E-02  0.50000500000E+01  0.50000000000E+01 0.  1.
         50    1    1    2    0    0  0.17767010094E-01  0.12732452233E-01 -0.47138638558E-02  0.50000500000E+01  0.50000000000E+01 0. -1.
</event>
<event>
 4    1  0.4944208E-021  0.5000050E+01  0.7818608E-02  0.2136455E+00
        -11   -1    0    0    0    0  0.00000000000E+00  0.00000000000E+00  0.50000499739E+01  0.50000500000E+01  0.51100000000E-03 0.  1.
         11   -1    0    0    0    0 -0.00000000000E+00 -0.00000000000E+00 -0.50000499739E+01  0.50000500000E+01  0.51100000000E-03 0. -1.
         50    1    1    2    0    0  0.91285314747E-02 -0.17442950772E-01 -0.10602635590E-01  0.50000500000E+01  0.50000000000E+01 0. -1.
         50    1    1    2    0    0 -0.91285314747E-02  0.17442950772E-01  0.10602635590E-01  0.50000500000E+01  0.50000000000E+01 0.  1.
</event>
<event>
 4    1  0.4944208E-021  0.5000050E+01  0.7818608E-02  0.2136455E+00
        -11   -1    0    0    0    0  0.00000000000E+00  0.00000000000E+00  0.50000499739E+01  0.50000500000E+01  0.51100000000E-03 0. -1.
         11   -1    0    0    0    0 -0.00000000000E+00 -0.00000000000E+00 -0.50000499739E+01  0.50000500000E+01  0.51100000000E-03 0.  1.
         50    1    1    2    0    0 -0.19286687467E-01  0.71141205712E-02 -0.87986064266E-02  0.50000500000E+01  0.50000000000E+01 0.  1.
         50    1    1    2    0    0  0.19286687467E-01 -0.71141205712E-02  0.87986064266E-02  0.50000500000E+01  0.50000000000E+01 0. -1.
</event>
<event>
 4    1  0.4944208E-021  0.5000050E+01  0.7818608E-02  0.2136455E+00
        -11   -1    0    0    0    0  0.00000000000E+00  0.00000000000E+00  0.50000499739E+01  0.50000500000E+01  0.51100000000E-03 0.  1.
         11   -1    0    0    0    0 -0.00000000000E+00 -0.00000000000E+00 -0.50000499739E+01  0.50000500000E+01  0.51100000000E-03 0. -1.
         50    1    1    2    0    0 -0.63092544620E-03  0.21499160094E-01  0.61147811348E-02  0.50000500000E+01  0.50000000000E+01 0.  1.
         50    1    1    2    0    0  0.63092544620E-03 -0.21499160094E-01 -0.61147811348E-02  0.50000500000E+01  0.50000000000E+01 0.  0.
</event>
<event>
 4    1  0.4944208E-021  0.5000050E+01  0.7818608E-02  0.2136455E+00
        -11   -1    0    0    0    0  0.00000000000E+00  0.00000000000E+00  0.50000499739E+01  0.50000500000E+01  0.51100000000E-03 0. -1.
         11   -1    0    0    0    0 -0.00000000000E+00 -0.00000000000E+00 -0.50000499739E+01  0.50000500000E+01  0.51100000000E-03 0.  1.
         50    1    1    2    0    0  0.76112961924E-02 -0.10156902718E-01 -0.18409454024E-01  0.50000500000E+01  0.50000000000E+01 0.  1.
         50    1    1    2    0    0 -0.76112961924E-02  0.10156902718E-01  0.18409454024E-01  0.50000500000E+01  0.50000000000E+01 0.  0.
</event>
<event>
 4    1  0.4944208E-021  0.5000050E+01  0.7818608E-02  0.2136455E+00
        -11   -1    0    0    0    0  0.00000000000E+00  0.00000000000E+00  0.50000499739E+01  0.50000500000E+01  0.51100000000E-03 0.  1.
         11   -1    0    0    0    0 -0.00000000000E+00 -0.00000000000E+00 -0.50000499739E+01  0.50000500000E+01  0.51100000000E-03 0. -1.
         50    1    1    2    0    0 -0.19348081212E-01 -0.35200186607E-02 -0.10642543025E-01  0.50000500000E+01  0.50000000000E+01 0.  0.
         50    1    1    2    0    0  0.19348081212E-01  0.35200186607E-02  0.10642543025E-01  0.50000500000E+01  0.50000000000E+01 0.  0.
</event>
<event>
 4    1  0.4944208E-021  0.5000050E+01  0.7818608E-02  0.2136455E+00
        -11   -1    0    0    0    0  0.00000000000E+00  0.00000000000E+00  0.50000499739E+01  0.50000500000E+01  0.51100000000E-03 0. -1.
         11   -1    0    0    0    0 -0.00000000000E+00 -0.00000000000E+00 -0.50000499739E+01  0.50000500000E+01  0.51100000000E-03 0.  1.
         50    1    1    2    0    0  0.11360643629E-01  0.41547610676E-02 -0.18806281844E-01  0.50000500000E+01  0.50000000000E+01 0.  1.
         50    1    1    2    0    0 -0.11360643629E-01 -0.41547610676E-02  0.18806281844E-01  0.50000500000E+01  0.50000000000E+01 0. -1.
</event>
<event>
 4    1  0.4944208E-021  0.5000050E+01  0.7818608E-02  0.2136455E+00
        -11   -1    0    0    0    0  0.00000000000E+00  0.00000000000E+00  0.50000499739E+01  0.50000500000E+01  0.51100000000E-03 0.  1.
         11   -1    0    0    0    0 -0.00000000000E+00 -0.00000000000E+00 -0.50000499739E+01  0.50000500000E+01  0.51100000000E-03 0. -1.
         50    1    1    2    0    0 -0.10825700119E-01  0.16982181196E-01 -0.97165960471E-02  0.50000500000E+01  0.50000000000E+01 0.  0.
         50    1    1    2    0    0  0.10825700119E-01 -0.16982181196E-01  0.97165960471E-02  0.50000500000E+01  0.50000000000E+01 0.  0.
</event>
<event>
 4    1  0.4944208E-021  0.5000050E+01  0.7818608E-02  0.2136455E+00
        -11   -1    0    0    0    0  0.00000000000E+00  0.00000000000E+00  0.50000499739E+01  0.50000500000E+01  0.51100000000E-03 0.  1.
         11   -1    0    0    0    0 -0.00000000000E+00 -0.00000000000E+00 -0.50000499739E+01  0.50000500000E+01  0.51100000000E-03 0. -1.
         50    1    1    2    0    0  0.21273889874E-01 -0.12913672915E-02  0.67643536399E-02  0.50000500000E+01  0.50000000000E+01 0.  0.
         50    1    1    2    0    0 -0.21273889874E-01  0.12913672915E-02 -0.67643536399E-02  0.50000500000E+01  0.50000000000E+01 0.  0.
</event>
<event>
 4    1  0.4944208E-021  0.5000050E+01  0.7818608E-02  0.2136455E+00
        -11   -1    0    0    0    0  0.00000000000E+00  0.00000000000E+00  0.50000499739E+01  0.50000500000E+01  0.51100000000E-03 0. -1.
         11   -1    0    0    0    0 -0.00000000000E+00 -0.00000000000E+00 -0.50000499739E+01  0.50000500000E+01  0.51100000000E-03 0.  1.
         50    1    1    2    0    0  0.17796108252E-01 -0.11242537870E-01 -0.75436313088E-02  0.50000500000E+01  0.50000000000E+01 0.  1.
         50    1    1    2    0    0 -0.17796108252E-01  0.11242537870E-01  0.75436313088E-02  0.50000500000E+01  0.50000000000E+01 0. -1.
</event>
<event>
 4    1  0.4944208E-021  0.5000050E+01  0.7818608E-02  0.2136455E+00
        -11   -1    0    0    0    0  0.00000000000E+00  0.00000000000E+00  0.50000499739E+01  0.50000500000E+01  0.51100000000E-03 0. -1.
         11   -1    0    0    0    0 -0.00000000000E+00 -0.00000000000E+00 -0.50000499739E+01  0.50000500000E+01  0.51100000000E-03 0.  1.
         50    1    1    2    0    0 -0.14253284824E-01 -0.17225557482E-01 -0.35572622681E-03  0.50000500000E+01  0.50000000000E+01 0.  1.
         50    1    1    2    0    0  0.14253284824E-01  0.17225557482E-01  0.35572622681E-03  0.50000500000E+01  0.50000000000E+01 0.  0.
</event>
<event>
 4    1  0.4944208E-021  0.5000050E+01  0.7818608E-02  0.2136455E+00
        -11   -1    0    0    0    0  0.00000000000E+00  0.00000000000E+00  0.50000499739E+01  0.50000500000E+01  0.51100000000E-03 0. -1.
         11   -1    0    0    0    0 -0.00000000000E+00 -0.00000000000E+00 -0.50000499739E+01  0.50000500000E+01  0.51100000000E-03 0.  1.
         50    1    1    2    0    0  0.13850030549E-01 -0.61071645781E-02 -0.16458483970E-01  0.50000500000E+01  0.50000000000E+01 0.  0.
         50    1    1    2    0    0 -0.13850030549E-01  0.61071645781E-02  0.16458483970E-01  0.50000500000E+01  0.50000000000E+01 0. -1.
</event>
<event>
 4    1  0.4944208E-021  0.5000050E+01  0.7818608E-02  0.2136455E+00
        -11   -1    0    0    0    0  0.00000000000E+00  0.00000000000E+00  0.50000499739E+01  0.50000500000E+01  0.51100000000E-03 0. -1.
         11   -1    0    0    0    0 -0.00000000000E+00 -0.00000000000E+00 -0.50000499739E+01  0.50000500000E+01  0.51100000000E-03 0.  1.
         50    1    1    2    0    0 -0.18542284042E-01 -0.12278634728E-01  0.23283753413E-02  0.50000500000E+01  0.50000000000E+01 0. -1.
         50    1    1    2    0    0  0.18542284042E-01  0.12278634728E-01 -0.23283753413E-02  0.50000500000E+01  0.50000000000E+01 0.  1.
</event>
<event>
 4    1  0.4944208E-021  0.5000050E+01  0.7818608E-02  0.2136455E+00
        -11   -1    0    0    0    0  0.00000000000E+00  0.00000000000E+00  0.50000499739E+01  0.50000500000E+01  0.51100000000E-03 0. -1.
         11   -1    0    0    0    0 -0.00000000000E+00 -0.00000000000E+00 -0.50000499739E+01  0.50000500000E+01  0.51100000000E-03 0.  1.
         50    1    1    2    0    0  0.16518349727E-04  0.19166442569E-01  0.11517365427E-01  0.50000500000E+01  0.50000000000E+01 0. -1.
         50    1    1    2    0    0 -0.16518349727E-04 -0.19166442569E-01 -0.11517365427E-01  0.50000500000E+01  0.50000000000E+01 0.  1.
</event>
<event>
 4    1  0.4944208E-021  0.5000050E+01  0.7818608E-02  0.2136455E+00
        -11   -1    0    0    0    0  0.00000000000E+00  0.00000000000E+00  0.50000499739E+01  0.50000500000E+01  0.51100000000E-03 0.  1.
         11   -1    0    0    0    0 -0.00000000000E+00 -0.00000000000E+00 -0.50000499739E+01  0.50000500000E+01  0.51100000000E-03 0. -1.
         50    1    1    2    0    0 -0.55944739035E-03  0.22322874570E-01  0.11742186899E-02  0.50000500000E+01  0.50000000000E+01 0.  0.
         50    1    1    2    0    0  0.55944739035E-03 -0.22322874570E-01 -0.11742186899E-02  0.50000500000E+01  0.50000000000E+01 0. -1.
</event>
<event>
 4    1  0.4944208E-021  0.5000050E+01  0.7818608E-02  0.2136455E+00
        -11   -1    0    0    0    0  0.00000000000E+00  0.00000000000E+00  0.50000499739E+01  0.50000500000E+01  0.51100000000E-03 0.  1.
         11   -1    0    0    0    0 -0.00000000000E+00 -0.00000000000E+00 -0.50000499739E+01  0.50000500000E+01  0.51100000000E-03 0. -1.
         50    1    1    2    0    0  0.56054721947E-02  0.69757070271E-02 -0.20491966547E-01  0.50000500000E+01  0.50000000000E+01 0. -1.
         50    1    1    2    0    0 -0.56054721947E-02 -0.69757070271E-02  0.20491966547E-01  0.50000500000E+01  0.50000000000E+01 0.  0.
</event>
<event>
 4    1  0.4944208E-021  0.5000050E+01  0.7818608E-02  0.2136455E+00
        -11   -1    0    0    0    0  0.00000000000E+00  0.00000000000E+00  0.50000499739E+01  0.50000500000E+01  0.51100000000E-03 0.  1.
         11   -1    0    0    0    0 -0.00000000000E+00 -0.00000000000E+00 -0.50000499739E+01  0.50000500000E+01  0.51100000000E-03 0. -1.
         50    1    1    2    0    0 -0.17307194646E-01 -0.60626793700E-02 -0.12794820527E-01  0.50000500000E+01  0.50000000000E+01 0. -1.
         50    1    1    2    0    0  0.17307194646E-01  0.60626793700E-02  0.12794820527E-01  0.50000500000E+01  0.50000000000E+01 0. -1.
</event>
<event>
 4    1  0.4944208E-021  0.5000050E+01  0.7818608E-02  0.2136455E+00
        -11   -1    0    0    0    0  0.00000000000E+00  0.00000000000E+00  0.50000499739E+01  0.50000500000E+01  0.51100000000E-03 0. -1.
         11   -1    0    0    0    0 -0.00000000000E+00 -0.00000000000E+00 -0.50000499739E+01  0.50000500000E+01  0.51100000000E-03 0.  1.
         50    1    1    2    0    0 -0.12901783445E-01  0.48306904261E-02 -0.17612805397E-01  0.50000500000E+01  0.50000000000E+01 0.  0.
         50    1    1    2    0    0  0.12901783445E-01 -0.48306904261E-02  0.17612805397E-01  0.50000500000E+01  0.50000000000E+01 0.  0.
</event>
<event>
 4    1  0.4944208E-021  0.5000050E+01  0.7818608E-02  0.2136455E+00
        -11   -1    0    0    0    0  0.00000000000E+00  0.00000000000E+00  0.50000499739E+01  0.50000500000E+01  0.51100000000E-03 0.  1.
         11   -1    0    0    0    0 -0.00000000000E+00 -0.00000000000E+00 -0.50000499739E+01  0.50000500000E+01  0.51100000000E-03 0. -1.
         50    1    1    2    0    0 -0.11852074053E-01 -0.11397171598E-01  0.15153722981E-01  0.50000500000E+01  0.50000000000E+01 0. -1.
         50    1    1    2    0    0  0.11852074053E-01  0.11397171598E-01 -0.15153722981E-01  0.50000500000E+01  0.50000000000E+01 0.  0.
</event>
<event>
 4    1  0.4944208E-021  0.5000050E+01  0.7818608E-02  0.2136455E+00
        -11   -1    0    0    0    0  0.00000000000E+00  0.00000000000E+00  0.50000499739E+01  0.50000500000E+01  0.51100000000E-03 0. -1.
         11   -1    0    0    0    0 -0.00000000000E+00 -0.00000000000E+00 -0.50000499739E+01  0.50000500000E+01  0.51100000000E-03 0.  1.
         50    1    1    2    0    0 -0.19281878953E-01  0.58629782503E-02 -0.96869566981E-02  0.50000500000E+01  0.50000000000E+01 0.  0.
         50    1    1    2    0    0  0.19281878953E-01 -0.58629782503E-02  0.96869566981E-02  0.50000500000E+01  0.50000000000E+01 0.  0.
</event>
<event>
 4    1  0.4944208E-021  0.5000050E+01  0.7818608E-02  0.2136455E+00
        -11   -1    0    0    0    0  0.00000000000E+00  0.00000000000E+00  0.50000499739E+01  0.50000500000E+01  0.51100000000E-03 0. -1.
         11   -1    0    0    0    0 -0.00000000000E+00 -0.00000000000E+00 -0.50000499739E+01  0.50000500000E+01  0.51100000000E-03 0.  1.
         50    1    1    2    0    0  0.12199178036E-01 -0.40001516417E-03 -0.18735595617E-01  0.50000500000E+01  0.50000000000E+01 0. -1.
         50    1    1    2    0    0 -0.12199178036E-01  0.40001516417E-03  0.18735595617E-01  0.50000500000E+01  0.50000000000E+01 0. -1.
</event>
<event>
 4    1  0.4944208E-021  0.5000050E+01  0.7818608E-02  0.2136455E+00
        -11   -1    0    0    0    0  0.00000000000E+00  0.00000000000E+00  0.50000499739E+01  0.50000500000E+01  0.51100000000E-03 0. -1.
         11   -1    0    0    0    0 -0.00000000000E+00 -0.00000000000E+00 -0.50000499739E+01  0.50000500000E+01  0.51100000000E-03 0.  1.
         50    1    1    2    0    0  0.44581669658E-02 -0.16660012536E-01 -0.14232752004E-01  0.50000500000E+01  0.50000000000E+01 0. -1.
         50    1    1    2    0    0 -0.44581669658E-02  0.16660012536E-01  0.14232752004E-01  0.50000500000E+01  0.50000000000E+01 0. -1.
</event>
<event>
 4    1  0.4944208E-021  0.5000050E+01  0.7818608E-02  0.2136455E+00
        -11   -1    0    0    0    0  0.00000000000E+00  0.00000000000E+00  0.50000499739E+01  0.50000500000E+01  0.51100000000E-03 0. -1.
         11   -1    0    0    0    0 -0.00000000000E+00 -0.00000000000E+00 -0.50000499739E+01  0.50000500000E+01  0.51100000000E-03 0.  1.
         50    1    1    2    0    0 -0.21919758569E-01  0.20032839097E-02 -0.39387228684E-02  0.50000500000E+01  0.50000000000E+01 0. -1.
         50    1    1    2    0    0  0.21919758569E-01 -0.20032839097E-02  0.39387228684E-02  0.50000500000E+01  0.50000000000E+01 0.  0.
</event>
<event>
 4    1  0.4944208E-021  0.5000050E+01  0.7818608E-02  0.2136455E+00
        -11   -1    0    0    0    0  0.00000000000E+00  0.00000000000E+00  0.50000499739E+01  0.50000500000E+01  0.51100000000E-03 0.  1.
         11   -1    0    0    0    0 -0.00000000000E+00 -0.00000000000E+00 -0.50000499739E+01  0.50000500000E+01  0.51100000000E-03 0. -1.
         50    1    1    2    0    0 -0.10240755579E-01  0.14645195426E-02 -0.19823839378E-01  0.50000500000E+01  0.50000000000E+01 0.  0.
         50    1    1    2    0    0  0.10240755579E-01 -0.14645195426E-02  0.19823839378E-01  0.50000500000E+01  0.50000000000E+01 0.  0.
</event>
<event>
 4    1  0.4944208E-021  0.5000050E+01  0.7818608E-02  0.2136455E+00
        -11   -1    0    0    0    0  0.00000000000E+00  0.00000000000E+00  0.50000499739E+01  0.50000500000E+01  0.51100000000E-03 0.  1.
         11   -1    0    0    0    0 -0.00000000000E+00 -0.00000000000E+00 -0.50000499739E+01  0.50000500000E+01  0.51100000000E-03 0. -1.
         50    1    1    2    0    0 -0.84260999085E-02 -0.19206199435E-01  0.77540469179E-02  0.50000500000E+01  0.50000000000E+01 0. -1.
         50    1    1    2    0    0  0.84260999085E-02  0.19206199435E-01 -0.77540469179E-02  0.50000500000E+01  0.50000000000E+01 0.  0.
</event>
<event>
 4    1  0.4944208E-021  0.5000050E+01  0.7818608E-02  0.2136455E+00
        -11   -1    0    0    0    0  0.00000000000E+00  0.00000000000E+00  0.50000499739E+01  0.50000500000E+01  0.51100000000E-03 0. -1.
         11   -1    0    0    0    0 -0.00000000000E+00 -0.00000000000E+00 -0.50000499739E+01  0.50000500000E+01  0.51100000000E-03 0.  1.
         50    1    1    2    0    0  0.87804827123E-02 -0.19908948155E-01  0.51516411645E-02  0.50000500000E+01  0.50000000000E+01 0. -1.
         50    1    1    2    0    0 -0.87804827123E-02  0.19908948155E-01 -0.51516411645E-02  0.50000500000E+01  0.50000000000E+01 0. -1.
</event>
<event>
 4    1  0.4944208E-021  0.5000050E+01  0.7818608E-02  0.2136455E+00
        -11   -1    0    0    0    0  0.00000000000E+00  0.00000000000E+00  0.50000499739E+01  0.50000500000E+01  0.51100000000E-03 0. -1.
         11   -1    0    0    0    0 -0.00000000000E+00 -0.00000000000E+00 -0.50000499739E+01  0.50000500000E+01  0.51100000000E-03 0.  1.
         50    1    1    2    0    0 -0.21660530943E-01  0.12632947603E-02  0.54062912996E-02  0.50000500000E+01  0.50000000000E+01 0.  1.
         50    1    1    2    0    0  0.21660530943E-01 -0.12632947603E-02 -0.54062912996E-02  0.50000500000E+01  0.50000000000E+01 0. -1.
</event>
<event>
 4    1  0.4944208E-021  0.5000050E+01  0.7818608E-02  0.2136455E+00
        -11   -1    0    0    0    0  0.00000000000E+00  0.00000000000E+00  0.50000499739E+01  0.50000500000E+01  0.51100000000E-03 0.  1.
         11   -1    0    0    0    0 -0.00000000000E+00 -0.00000000000E+00 -0.50000499739E+01  0.50000500000E+01  0.51100000000E-03 0. -1.
         50    1    1    2    0    0 -0.20936156639E-01 -0.73102736089E-04 -0.78533114787E-02  0.50000500000E+01  0.50000000000E+01 0.  0.
         50    1    1    2    0    0  0.20936156639E-01  0.73102736089E-04  0.78533114787E-02  0.50000500000E+01  0.50000000000E+01 0. -1.
</event>
<event>
 4    1  0.4944208E-021  0.5000050E+01  0.7818608E-02  0.2136455E+00
        -11   -1    0    0    0    0  0.00000000000E+00  0.00000000000E+00  0.50000499739E+01  0.50000500000E+01  0.51100000000E-03 0.  1.
         11   -1    0    0    0    0 -0.00000000000E+00 -0.00000000000E+00 -0.50000499739E+01  0.50000500000E+01  0.51100000000E-03 0. -1.
         50    1    1    2    0    0 -0.16116183288E-01 -0.32656467688E-02  0.15152778208E-01  0.50000500000E+01  0.50000000000E+01 0.  1.
         50    1    1    2    0    0  0.16116183288E-01  0.32656467688E-02 -0.15152778208E-01  0.50000500000E+01  0.50000000000E+01 0.  1.
</event>
<event>
 4    1  0.4944208E-021  0.5000050E+01  0.7818608E-02  0.2136455E+00
        -11   -1    0    0    0    0  0.00000000000E+00  0.00000000000E+00  0.50000499739E+01  0.50000500000E+01  0.51100000000E-03 0. -1.
         11   -1    0    0    0    0 -0.00000000000E+00 -0.00000000000E+00 -0.50000499739E+01  0.50000500000E+01  0.51100000000E-03 0.  1.
         50    1    1    2    0    0  0.75043284493E-02  0.19960934132E-01  0.67267126518E-02  0.50000500000E+01  0.50000000000E+01 0. -1.
         50    1    1    2    0    0 -0.75043284493E-02 -0.19960934132E-01 -0.67267126518E-02  0.50000500000E+01  0.50000000000E+01 0.  1.
</event>
<event>
 4    1  0.4944208E-021  0.5000050E+01  0.7818608E-02  0.2136455E+00
        -11   -1    0    0    0    0  0.00000000000E+00  0.00000000000E+00  0.50000499739E+01  0.50000500000E+01  0.51100000000E-03 0. -1.
         11   -1    0    0    0    0 -0.00000000000E+00 -0.00000000000E+00 -0.50000499739E+01  0.50000500000E+01  0.51100000000E-03 0.  1.
         50    1    1    2    0    0  0.10739031571E-01 -0.16089509276E-01 -0.11216211132E-01  0.50000500000E+01  0.50000000000E+01 0.  1.
         50    1    1    2    0    0 -0.10739031571E-01  0.16089509276E-01  0.11216211132E-01  0.50000500000E+01  0.50000000000E+01 0. -1.
</event>
<event>
 4    1  0.4944208E-021  0.5000050E+01  0.7818608E-02  0.2136455E+00
        -11   -1    0    0    0    0  0.00000000000E+00  0.00000000000E+00  0.50000499739E+01  0.50000500000E+01  0.51100000000E-03 0.  1.
         11   -1    0    0    0    0 -0.00000000000E+00 -0.00000000000E+00 -0.50000499739E+01  0.50000500000E+01  0.51100000000E-03 0. -1.
         50    1    1    2    0    0 -0.15792713134E-01  0.96966312437E-02  0.12512715707E-01  0.50000500000E+01  0.50000000000E+01 0. -1.
         50    1    1    2    0    0  0.15792713134E-01 -0.96966312437E-02 -0.12512715707E-01  0.50000500000E+01  0.50000000000E+01 0.  1.
</event>
<event>
 4    1  0.4944208E-021  0.5000050E+01  0.7818608E-02  0.2136455E+00
        -11   -1    0    0    0    0  0.00000000000E+00  0.00000000000E+00  0.50000499739E+01  0.50000500000E+01  0.51100000000E-03 0.  1.
         11   -1    0    0    0    0 -0.00000000000E+00 -0.00000000000E+00 -0.50000499739E+01  0.50000500000E+01  0.51100000000E-03 0. -1.
         50    1    1    2    0    0 -0.20664163602E-01 -0.69494896507E-02  0.49698527361E-02  0.50000500000E+01  0.50000000000E+01 0. -1.
         50    1    1    2    0    0  0.20664163602E-01  0.69494896507E-02 -0.49698527361E-02  0.50000500000E+01  0.50000000000E+01 0.  0.
</event>
<event>
 4    1  0.4944208E-021  0.5000050E+01  0.7818608E-02  0.2136455E+00
        -11   -1    0    0    0    0  0.00000000000E+00  0.00000000000E+00  0.50000499739E+01  0.50000500000E+01  0.51100000000E-03 0. -1.
         11   -1    0    0    0    0 -0.00000000000E+00 -0.00000000000E+00 -0.50000499739E+01  0.50000500000E+01  0.51100000000E-03 0.  1.
         50    1    1    2    0    0  0.88590736342E-02  0.19538516215E-01  0.63060049527E-02  0.50000500000E+01  0.50000000000E+01 0. -1.
         50    1    1    2    0    0 -0.88590736342E-02 -0.19538516215E-01 -0.63060049527E-02  0.50000500000E+01  0.50000000000E+01 0.  1.
</event>
<event>
 4    1  0.4944208E-021  0.5000050E+01  0.7818608E-02  0.2136455E+00
        -11   -1    0    0    0    0  0.00000000000E+00  0.00000000000E+00  0.50000499739E+01  0.50000500000E+01  0.51100000000E-03 0.  1.
         11   -1    0    0    0    0 -0.00000000000E+00 -0.00000000000E+00 -0.50000499739E+01  0.50000500000E+01  0.51100000000E-03 0. -1.
         50    1    1    2    0    0 -0.14600494007E-01 -0.11660208041E-02  0.16895812210E-01  0.50000500000E+01  0.50000000000E+01 0.  0.
         50    1    1    2    0    0  0.14600494007E-01  0.11660208041E-02 -0.16895812210E-01  0.50000500000E+01  0.50000000000E+01 0. -1.
</event>
<event>
 4    1  0.4944208E-021  0.5000050E+01  0.7818608E-02  0.2136455E+00
        -11   -1    0    0    0    0  0.00000000000E+00  0.00000000000E+00  0.50000499739E+01  0.50000500000E+01  0.51100000000E-03 0.  1.
         11   -1    0    0    0    0 -0.00000000000E+00 -0.00000000000E+00 -0.50000499739E+01  0.50000500000E+01  0.51100000000E-03 0. -1.
         50    1    1    2    0    0  0.91746082353E-03  0.19663131623E-01 -0.10607639720E-01  0.50000500000E+01  0.50000000000E+01 0. -1.
         50    1    1    2    0    0 -0.91746082353E-03 -0.19663131623E-01  0.10607639720E-01  0.50000500000E+01  0.50000000000E+01 0.  1.
</event>
<event>
 4    1  0.4944208E-021  0.5000050E+01  0.7818608E-02  0.2136455E+00
        -11   -1    0    0    0    0  0.00000000000E+00  0.00000000000E+00  0.50000499739E+01  0.50000500000E+01  0.51100000000E-03 0. -1.
         11   -1    0    0    0    0 -0.00000000000E+00 -0.00000000000E+00 -0.50000499739E+01  0.50000500000E+01  0.51100000000E-03 0.  1.
         50    1    1    2    0    0 -0.11981801839E-01  0.35020067414E-02  0.18551950665E-01  0.50000500000E+01  0.50000000000E+01 0. -1.
         50    1    1    2    0    0  0.11981801839E-01 -0.35020067414E-02 -0.18551950665E-01  0.50000500000E+01  0.50000000000E+01 0.  0.
</event>
<event>
 4    1  0.4944208E-021  0.5000050E+01  0.7818608E-02  0.2136455E+00
        -11   -1    0    0    0    0  0.00000000000E+00  0.00000000000E+00  0.50000499739E+01  0.50000500000E+01  0.51100000000E-03 0. -1.
         11   -1    0    0    0    0 -0.00000000000E+00 -0.00000000000E+00 -0.50000499739E+01  0.50000500000E+01  0.51100000000E-03 0.  1.
         50    1    1    2    0    0  0.88696035346E-02  0.12892191003E-01 -0.15972602928E-01  0.50000500000E+01  0.50000000000E+01 0. -1.
         50    1    1    2    0    0 -0.88696035346E-02 -0.12892191003E-01  0.15972602928E-01  0.50000500000E+01  0.50000000000E+01 0.  0.
</event>
<event>
 4    1  0.4944208E-021  0.5000050E+01  0.7818608E-02  0.2136455E+00
        -11   -1    0    0    0    0  0.00000000000E+00  0.00000000000E+00  0.50000499739E+01  0.50000500000E+01  0.51100000000E-03 0.  1.
         11   -1    0    0    0    0 -0.00000000000E+00 -0.00000000000E+00 -0.50000499739E+01  0.50000500000E+01  0.51100000000E-03 0. -1.
         50    1    1    2    0    0  0.26814718217E-02  0.59745646732E-02 -0.21380289657E-01  0.50000500000E+01  0.50000000000E+01 0.  0.
         50    1    1    2    0    0 -0.26814718217E-02 -0.59745646732E-02  0.21380289657E-01  0.50000500000E+01  0.50000000000E+01 0.  1.
</event>
<event>
 4    1  0.4944208E-021  0.5000050E+01  0.7818608E-02  0.2136455E+00
        -11   -1    0    0    0    0  0.00000000000E+00  0.00000000000E+00  0.50000499739E+01  0.50000500000E+01  0.51100000000E-03 0.  1.
         11   -1    0    0    0    0 -0.00000000000E+00 -0.00000000000E+00 -0.50000499739E+01  0.50000500000E+01  0.51100000000E-03 0. -1.
         50    1    1    2    0    0  0.15722142891E-01 -0.93742684588E-02 -0.12842889619E-01  0.50000500000E+01  0.50000000000E+01 0.  0.
         50    1    1    2    0    0 -0.15722142891E-01  0.93742684588E-02  0.12842889619E-01  0.50000500000E+01  0.50000000000E+01 0.  0.
</event>
<event>
 4    1  0.4944208E-021  0.5000050E+01  0.7818608E-02  0.2136455E+00
        -11   -1    0    0    0    0  0.00000000000E+00  0.00000000000E+00  0.50000499739E+01  0.50000500000E+01  0.51100000000E-03 0.  1.
         11   -1    0    0    0    0 -0.00000000000E+00 -0.00000000000E+00 -0.50000499739E+01  0.50000500000E+01  0.51100000000E-03 0. -1.
         50    1    1    2    0    0  0.15334931968E-01 -0.16272606469E-01 -0.21128238756E-03  0.50000500000E+01  0.50000000000E+01 0. -1.
         50    1    1    2    0    0 -0.15334931968E-01  0.16272606469E-01  0.21128238757E-03  0.50000500000E+01  0.50000000000E+01 0.  1.
</event>
<event>
 4    1  0.4944208E-021  0.5000050E+01  0.7818608E-02  0.2136455E+00
        -11   -1    0    0    0    0  0.00000000000E+00  0.00000000000E+00  0.50000499739E+01  0.50000500000E+01  0.51100000000E-03 0.  1.
         11   -1    0    0    0    0 -0.00000000000E+00 -0.00000000000E+00 -0.50000499739E+01  0.50000500000E+01  0.51100000000E-03 0. -1.
         50    1    1    2    0    0  0.95482521314E-02 -0.85528409274E-02 -0.18321634570E-01  0.50000500000E+01  0.50000000000E+01 0. -1.
         50    1    1    2    0    0 -0.95482521314E-02  0.85528409274E-02  0.18321634570E-01  0.50000500000E+01  0.50000000000E+01 0.  0.
</event>
<event>
 4    1  0.4944208E-021  0.5000050E+01  0.7818608E-02  0.2136455E+00
        -11   -1    0    0    0    0  0.00000000000E+00  0.00000000000E+00  0.50000499739E+01  0.50000500000E+01  0.51100000000E-03 0.  1.
         11   -1    0    0    0    0 -0.00000000000E+00 -0.00000000000E+00 -0.50000499739E+01  0.50000500000E+01  0.51100000000E-03 0. -1.
         50    1    1    2    0    0  0.14420080340E-01  0.15571823537E-01  0.70414554392E-02  0.50000500000E+01  0.50000000000E+01 0.  1.
         50    1    1    2    0    0 -0.14420080340E-01 -0.15571823537E-01 -0.70414554392E-02  0.50000500000E+01  0.50000000000E+01 0. -1.
</event>
<event>
 4    1  0.4944208E-021  0.5000050E+01  0.7818608E-02  0.2136455E+00
        -11   -1    0    0    0    0  0.00000000000E+00  0.00000000000E+00  0.50000499739E+01  0.50000500000E+01  0.51100000000E-03 0.  1.
         11   -1    0    0    0    0 -0.00000000000E+00 -0.00000000000E+00 -0.50000499739E+01  0.50000500000E+01  0.51100000000E-03 0. -1.
         50    1    1    2    0    0  0.12488726697E-01 -0.11844117027E-01 -0.14274140862E-01  0.50000500000E+01  0.50000000000E+01 0.  0.
         50    1    1    2    0    0 -0.12488726697E-01  0.11844117027E-01  0.14274140862E-01  0.50000500000E+01  0.50000000000E+01 0. -1.
</event>
<event>
 4    1  0.4944208E-021  0.5000050E+01  0.7818608E-02  0.2136455E+00
        -11   -1    0    0    0    0  0.00000000000E+00  0.00000000000E+00  0.50000499739E+01  0.50000500000E+01  0.51100000000E-03 0.  1.
         11   -1    0    0    0    0 -0.00000000000E+00 -0.00000000000E+00 -0.50000499739E+01  0.50000500000E+01  0.51100000000E-03 0. -1.
         50    1    1    2    0    0 -0.11953283425E-01 -0.13532994348E-01  0.13190131892E-01  0.50000500000E+01  0.50000000000E+01 0. -1.
         50    1    1    2    0    0  0.11953283425E-01  0.13532994348E-01 -0.13190131892E-01  0.50000500000E+01  0.50000000000E+01 0. -1.
</event>
<event>
 4    1  0.4944208E-021  0.5000050E+01  0.7818608E-02  0.2136455E+00
        -11   -1    0    0    0    0  0.00000000000E+00  0.00000000000E+00  0.50000499739E+01  0.50000500000E+01  0.51100000000E-03 0. -1.
         11   -1    0    0    0    0 -0.00000000000E+00 -0.00000000000E+00 -0.50000499739E+01  0.50000500000E+01  0.51100000000E-03 0.  1.
         50    1    1    2    0    0 -0.10994859701E-02  0.21340137991E-01 -0.65872711441E-02  0.50000500000E+01  0.50000000000E+01 0.  1.
         50    1    1    2    0    0  0.10994859701E-02 -0.21340137991E-01  0.65872711441E-02  0.50000500000E+01  0.50000000000E+01 0.  0.
</event>
<event>
 4    1  0.4944208E-021  0.5000050E+01  0.7818608E-02  0.2136455E+00
        -11   -1    0    0    0    0  0.00000000000E+00  0.00000000000E+00  0.50000499739E+01  0.50000500000E+01  0.51100000000E-03 0.  1.
         11   -1    0    0    0    0 -0.00000000000E+00 -0.00000000000E+00 -0.50000499739E+01  0.50000500000E+01  0.51100000000E-03 0. -1.
         50    1    1    2    0    0  0.47672842358E-02  0.19815166843E-01  0.91997099954E-02  0.50000500000E+01  0.50000000000E+01 0.  1.
         50    1    1    2    0    0 -0.47672842358E-02 -0.19815166843E-01 -0.91997099954E-02  0.50000500000E+01  0.50000000000E+01 0. -1.
</event>
<event>
 4    1  0.4944208E-021  0.5000050E+01  0.7818608E-02  0.2136455E+00
        -11   -1    0    0    0    0  0.00000000000E+00  0.00000000000E+00  0.50000499739E+01  0.50000500000E+01  0.51100000000E-03 0. -1.
         11   -1    0    0    0    0 -0.00000000000E+00 -0.00000000000E+00 -0.50000499739E+01  0.50000500000E+01  0.51100000000E-03 0.  1.
         50    1    1    2    0    0 -0.16167596265E-01  0.14062306176E-01  0.63924076878E-02  0.50000500000E+01  0.50000000000E+01 0.  0.
         50    1    1    2    0    0  0.16167596265E-01 -0.14062306176E-01 -0.63924076878E-02  0.50000500000E+01  0.50000000000E+01 0.  1.
</event>
<event>
 4    1  0.4944208E-021  0.5000050E+01  0.7818608E-02  0.2136455E+00
        -11   -1    0    0    0    0  0.00000000000E+00  0.00000000000E+00  0.50000499739E+01  0.50000500000E+01  0.51100000000E-03 0. -1.
         11   -1    0    0    0    0 -0.00000000000E+00 -0.00000000000E+00 -0.50000499739E+01  0.50000500000E+01  0.51100000000E-03 0.  1.
         50    1    1    2    0    0  0.12955301696E-01  0.66678329451E-02  0.16961800075E-01  0.50000500000E+01  0.50000000000E+01 0. -1.
         50    1    1    2    0    0 -0.12955301696E-01 -0.66678329451E-02 -0.16961800075E-01  0.50000500000E+01  0.50000000000E+01 0.  1.
</event>
<event>
 4    1  0.4944208E-021  0.5000050E+01  0.7818608E-02  0.2136455E+00
        -11   -1    0    0    0    0  0.00000000000E+00  0.00000000000E+00  0.50000499739E+01  0.50000500000E+01  0.51100000000E-03 0. -1.
         11   -1    0    0    0    0 -0.00000000000E+00 -0.00000000000E+00 -0.50000499739E+01  0.50000500000E+01  0.51100000000E-03 0.  1.
         50    1    1    2    0    0 -0.14527737368E-01 -0.36713083933E-02 -0.16597254039E-01  0.50000500000E+01  0.50000000000E+01 0.  1.
         50    1    1    2    0    0  0.14527737368E-01  0.36713083933E-02  0.16597254039E-01  0.50000500000E+01  0.50000000000E+01 0.  0.
</event>
<event>
 4    1  0.4944208E-021  0.5000050E+01  0.7818608E-02  0.2136455E+00
        -11   -1    0    0    0    0  0.00000000000E+00  0.00000000000E+00  0.50000499739E+01  0.50000500000E+01  0.51100000000E-03 0.  1.
         11   -1    0    0    0    0 -0.00000000000E+00 -0.00000000000E+00 -0.50000499739E+01  0.50000500000E+01  0.51100000000E-03 0. -1.
         50    1    1    2    0    0  0.23747063241E-02 -0.15291537965E-01  0.16141007915E-01  0.50000500000E+01  0.50000000000E+01 0.  0.
         50    1    1    2    0    0 -0.23747063241E-02  0.15291537965E-01 -0.16141007915E-01  0.50000500000E+01  0.50000000000E+01 0.  0.
</event>
<event>
 4    1  0.4944208E-021  0.5000050E+01  0.7818608E-02  0.2136455E+00
        -11   -1    0    0    0    0  0.00000000000E+00  0.00000000000E+00  0.50000499739E+01  0.50000500000E+01  0.51100000000E-03 0.  1.
         11   -1    0    0    0    0 -0.00000000000E+00 -0.00000000000E+00 -0.50000499739E+01  0.50000500000E+01  0.51100000000E-03 0. -1.
         50    1    1    2    0    0 -0.11494498533E-01  0.35430395470E-02  0.18850089502E-01  0.50000500000E+01  0.50000000000E+01 0.  0.
         50    1    1    2    0    0  0.11494498533E-01 -0.35430395470E-02 -0.18850089502E-01  0.50000500000E+01  0.50000000000E+01 0.  0.
</event>
<event>
 4    1  0.4944208E-021  0.5000050E+01  0.7818608E-02  0.2136455E+00
        -11   -1    0    0    0    0  0.00000000000E+00  0.00000000000E+00  0.50000499739E+01  0.50000500000E+01  0.51100000000E-03 0. -1.
         11   -1    0    0    0    0 -0.00000000000E+00 -0.00000000000E+00 -0.50000499739E+01  0.50000500000E+01  0.51100000000E-03 0.  1.
         50    1    1    2    0    0 -0.10038220682E-01  0.16450316244E-01  0.11341239835E-01  0.50000500000E+01  0.50000000000E+01 0. -1.
         50    1    1    2    0    0  0.10038220682E-01 -0.16450316244E-01 -0.11341239835E-01  0.50000500000E+01  0.50000000000E+01 0.  1.
</event>
<event>
 4    1  0.4944208E-021  0.5000050E+01  0.7818608E-02  0.2136455E+00
        -11   -1    0    0    0    0  0.00000000000E+00  0.00000000000E+00  0.50000499739E+01  0.50000500000E+01  0.51100000000E-03 0.  1.
         11   -1    0    0    0    0 -0.00000000000E+00 -0.00000000000E+00 -0.50000499739E+01  0.50000500000E+01  0.51100000000E-03 0. -1.
         50    1    1    2    0    0  0.81779138222E-02  0.11310815059E-01  0.17469679110E-01  0.50000500000E+01  0.50000000000E+01 0.  0.
         50    1    1    2    0    0 -0.81779138222E-02 -0.11310815059E-01 -0.17469679110E-01  0.50000500000E+01  0.50000000000E+01 0.  0.
</event>
<event>
 4    1  0.4944208E-021  0.5000050E+01  0.7818608E-02  0.2136455E+00
        -11   -1    0    0    0    0  0.00000000000E+00  0.00000000000E+00  0.50000499739E+01  0.50000500000E+01  0.51100000000E-03 0. -1.
         11   -1    0    0    0    0 -0.00000000000E+00 -0.00000000000E+00 -0.50000499739E+01  0.50000500000E+01  0.51100000000E-03 0.  1.
         50    1    1    2    0    0 -0.44794363451E-02 -0.38247106206E-02  0.21571016172E-01  0.50000500000E+01  0.50000000000E+01 0. -1.
         50    1    1    2    0    0  0.44794363451E-02  0.38247106206E-02 -0.21571016172E-01  0.50000500000E+01  0.50000000000E+01 0.  1.
</event>
<event>
 4    1  0.4944208E-021  0.5000050E+01  0.7818608E-02  0.2136455E+00
        -11   -1    0    0    0    0  0.00000000000E+00  0.00000000000E+00  0.50000499739E+01  0.50000500000E+01  0.51100000000E-03 0.  1.
         11   -1    0    0    0    0 -0.00000000000E+00 -0.00000000000E+00 -0.50000499739E+01  0.50000500000E+01  0.51100000000E-03 0. -1.
         50    1    1    2    0    0 -0.60989735357E-02 -0.16828410130E-01  0.13401851898E-01  0.50000500000E+01  0.50000000000E+01 0.  1.
         50    1    1    2    0    0  0.60989735357E-02  0.16828410130E-01 -0.13401851898E-01  0.50000500000E+01  0.50000000000E+01 0. -1.
</event>
<event>
 4    1  0.4944208E-021  0.5000050E+01  0.7818608E-02  0.2136455E+00
        -11   -1    0    0    0    0  0.00000000000E+00  0.00000000000E+00  0.50000499739E+01  0.50000500000E+01  0.51100000000E-03 0.  1.
         11   -1    0    0    0    0 -0.00000000000E+00 -0.00000000000E+00 -0.50000499739E+01  0.50000500000E+01  0.51100000000E-03 0. -1.
         50    1    1    2    0    0 -0.95725248300E-02  0.10119047892E-01 -0.17492116457E-01  0.50000500000E+01  0.50000000000E+01 0.  0.
         50    1    1    2    0    0  0.95725248300E-02 -0.10119047892E-01  0.17492116457E-01  0.50000500000E+01  0.50000000000E+01 0.  1.
</event>
<event>
 4    1  0.4944208E-021  0.5000050E+01  0.7818608E-02  0.2136455E+00
        -11   -1    0    0    0    0  0.00000000000E+00  0.00000000000E+00  0.50000499739E+01  0.50000500000E+01  0.51100000000E-03 0.  1.
         11   -1    0    0    0    0 -0.00000000000E+00 -0.00000000000E+00 -0.50000499739E+01  0.50000500000E+01  0.51100000000E-03 0. -1.
         50    1    1    2    0    0  0.11973189952E-01  0.16020686059E-01 -0.99991419912E-02  0.50000500000E+01  0.50000000000E+01 0. -1.
         50    1    1    2    0    0 -0.11973189952E-01 -0.16020686059E-01  0.99991419912E-02  0.50000500000E+01  0.50000000000E+01 0.  1.
</event>
<event>
 4    1  0.4944208E-021  0.5000050E+01  0.7818608E-02  0.2136455E+00
        -11   -1    0    0    0    0  0.00000000000E+00  0.00000000000E+00  0.50000499739E+01  0.50000500000E+01  0.51100000000E-03 0. -1.
         11   -1    0    0    0    0 -0.00000000000E+00 -0.00000000000E+00 -0.50000499739E+01  0.50000500000E+01  0.51100000000E-03 0.  1.
         50    1    1    2    0    0 -0.55719025297E-02 -0.35630800899E-02 -0.21360263633E-01  0.50000500000E+01  0.50000000000E+01 0.  0.
         50    1    1    2    0    0  0.55719025297E-02  0.35630800899E-02  0.21360263633E-01  0.50000500000E+01  0.50000000000E+01 0. -1.
</event>
<event>
 4    1  0.4944208E-021  0.5000050E+01  0.7818608E-02  0.2136455E+00
        -11   -1    0    0    0    0  0.00000000000E+00  0.00000000000E+00  0.50000499739E+01  0.50000500000E+01  0.51100000000E-03 0. -1.
         11   -1    0    0    0    0 -0.00000000000E+00 -0.00000000000E+00 -0.50000499739E+01  0.50000500000E+01  0.51100000000E-03 0.  1.
         50    1    1    2    0    0  0.60676064243E-02 -0.19400344551E-01  0.93173646264E-02  0.50000500000E+01  0.50000000000E+01 0. -1.
         50    1    1    2    0    0 -0.60676064243E-02  0.19400344551E-01 -0.93173646264E-02  0.50000500000E+01  0.50000000000E+01 0.  1.
</event>
<event>
 4    1  0.4944208E-021  0.5000050E+01  0.7818608E-02  0.2136455E+00
        -11   -1    0    0    0    0  0.00000000000E+00  0.00000000000E+00  0.50000499739E+01  0.50000500000E+01  0.51100000000E-03 0. -1.
         11   -1    0    0    0    0 -0.00000000000E+00 -0.00000000000E+00 -0.50000499739E+01  0.50000500000E+01  0.51100000000E-03 0.  1.
         50    1    1    2    0    0  0.60715964948E-02  0.85860441087E-02  0.19733678384E-01  0.50000500000E+01  0.50000000000E+01 0. -1.
         50    1    1    2    0    0 -0.60715964948E-02 -0.85860441087E-02 -0.19733678384E-01  0.50000500000E+01  0.50000000000E+01 0.  1.
</event>
<event>
 4    1  0.4944208E-021  0.5000050E+01  0.7818608E-02  0.2136455E+00
        -11   -1    0    0    0    0  0.00000000000E+00  0.00000000000E+00  0.50000499739E+01  0.50000500000E+01  0.51100000000E-03 0.  1.
         11   -1    0    0    0    0 -0.00000000000E+00 -0.00000000000E+00 -0.50000499739E+01  0.50000500000E+01  0.51100000000E-03 0. -1.
         50    1    1    2    0    0 -0.12357631738E-01 -0.16991422263E-01 -0.76539537045E-02  0.50000500000E+01  0.50000000000E+01 0.  0.
         50    1    1    2    0    0  0.12357631738E-01  0.16991422263E-01  0.76539537045E-02  0.50000500000E+01  0.50000000000E+01 0.  0.
</event>
<event>
 4    1  0.4944208E-021  0.5000050E+01  0.7818608E-02  0.2136455E+00
        -11   -1    0    0    0    0  0.00000000000E+00  0.00000000000E+00  0.50000499739E+01  0.50000500000E+01  0.51100000000E-03 0.  1.
         11   -1    0    0    0    0 -0.00000000000E+00 -0.00000000000E+00 -0.50000499739E+01  0.50000500000E+01  0.51100000000E-03 0. -1.
         50    1    1    2    0    0 -0.33991610298E-02 -0.22100456937E-01 -0.13419195001E-03  0.50000500000E+01  0.50000000000E+01 0. -1.
         50    1    1    2    0    0  0.33991610298E-02  0.22100456937E-01  0.13419195001E-03  0.50000500000E+01  0.50000000000E+01 0.  1.
</event>
<event>
 4    1  0.4944208E-021  0.5000050E+01  0.7818608E-02  0.2136455E+00
        -11   -1    0    0    0    0  0.00000000000E+00  0.00000000000E+00  0.50000499739E+01  0.50000500000E+01  0.51100000000E-03 0.  1.
         11   -1    0    0    0    0 -0.00000000000E+00 -0.00000000000E+00 -0.50000499739E+01  0.50000500000E+01  0.51100000000E-03 0. -1.
         50    1    1    2    0    0 -0.17929882167E-01  0.11707225198E-01  0.64391539531E-02  0.50000500000E+01  0.50000000000E+01 0.  1.
         50    1    1    2    0    0  0.17929882167E-01 -0.11707225198E-01 -0.64391539531E-02  0.50000500000E+01  0.50000000000E+01 0. -1.
</event>
<event>
 4    1  0.4944208E-021  0.5000050E+01  0.7818608E-02  0.2136455E+00
        -11   -1    0    0    0    0  0.00000000000E+00  0.00000000000E+00  0.50000499739E+01  0.50000500000E+01  0.51100000000E-03 0.  1.
         11   -1    0    0    0    0 -0.00000000000E+00 -0.00000000000E+00 -0.50000499739E+01  0.50000500000E+01  0.51100000000E-03 0. -1.
         50    1    1    2    0    0 -0.16365589030E-02 -0.18150129961E-01  0.12957505831E-01  0.50000500000E+01  0.50000000000E+01 0.  1.
         50    1    1    2    0    0  0.16365589030E-02  0.18150129961E-01 -0.12957505831E-01  0.50000500000E+01  0.50000000000E+01 0. -1.
</event>
<event>
 4    1  0.4944208E-021  0.5000050E+01  0.7818608E-02  0.2136455E+00
        -11   -1    0    0    0    0  0.00000000000E+00  0.00000000000E+00  0.50000499739E+01  0.50000500000E+01  0.51100000000E-03 0.  1.
         11   -1    0    0    0    0 -0.00000000000E+00 -0.00000000000E+00 -0.50000499739E+01  0.50000500000E+01  0.51100000000E-03 0. -1.
         50    1    1    2    0    0  0.19137392679E-01 -0.65663251487E-02  0.95208232564E-02  0.50000500000E+01  0.50000000000E+01 0.  0.
         50    1    1    2    0    0 -0.19137392679E-01  0.65663251487E-02 -0.95208232564E-02  0.50000500000E+01  0.50000000000E+01 0.  0.
</event>
<event>
 4    1  0.4944208E-021  0.5000050E+01  0.7818608E-02  0.2136455E+00
        -11   -1    0    0    0    0  0.00000000000E+00  0.00000000000E+00  0.50000499739E+01  0.50000500000E+01  0.51100000000E-03 0.  1.
         11   -1    0    0    0    0 -0.00000000000E+00 -0.00000000000E+00 -0.50000499739E+01  0.50000500000E+01  0.51100000000E-03 0. -1.
         50    1    1    2    0    0 -0.14122779182E-01 -0.17332513225E-01  0.36550444315E-03  0.50000500000E+01  0.50000000000E+01 0.  1.
         50    1    1    2    0    0  0.14122779182E-01  0.17332513225E-01 -0.36550444315E-03  0.50000500000E+01  0.50000000000E+01 0. -1.
</event>
<event>
 4    1  0.4944208E-021  0.5000050E+01  0.7818608E-02  0.2136455E+00
        -11   -1    0    0    0    0  0.00000000000E+00  0.00000000000E+00  0.50000499739E+01  0.50000500000E+01  0.51100000000E-03 0. -1.
         11   -1    0    0    0    0 -0.00000000000E+00 -0.00000000000E+00 -0.50000499739E+01  0.50000500000E+01  0.51100000000E-03 0.  1.
         50    1    1    2    0    0 -0.15851469304E-01  0.11737907915E-01 -0.10533515021E-01  0.50000500000E+01  0.50000000000E+01 0.  1.
         50    1    1    2    0    0  0.15851469304E-01 -0.11737907915E-01  0.10533515021E-01  0.50000500000E+01  0.50000000000E+01 0. -1.
</event>
<event>
 4    1  0.4944208E-021  0.5000050E+01  0.7818608E-02  0.2136455E+00
        -11   -1    0    0    0    0  0.00000000000E+00  0.00000000000E+00  0.50000499739E+01  0.50000500000E+01  0.51100000000E-03 0. -1.
         11   -1    0    0    0    0 -0.00000000000E+00 -0.00000000000E+00 -0.50000499739E+01  0.50000500000E+01  0.51100000000E-03 0.  1.
         50    1    1    2    0    0  0.11166868773E-01 -0.18811120207E-01 -0.46309068618E-02  0.50000500000E+01  0.50000000000E+01 0. -1.
         50    1    1    2    0    0 -0.11166868773E-01  0.18811120207E-01  0.46309068618E-02  0.50000500000E+01  0.50000000000E+01 0.  1.
</event>
<event>
 4    1  0.4944208E-021  0.5000050E+01  0.7818608E-02  0.2136455E+00
        -11   -1    0    0    0    0  0.00000000000E+00  0.00000000000E+00  0.50000499739E+01  0.50000500000E+01  0.51100000000E-03 0. -1.
         11   -1    0    0    0    0 -0.00000000000E+00 -0.00000000000E+00 -0.50000499739E+01  0.50000500000E+01  0.51100000000E-03 0.  1.
         50    1    1    2    0    0  0.15639275136E-01 -0.21864012470E-03 -0.15980230590E-01  0.50000500000E+01  0.50000000000E+01 0.  1.
         50    1    1    2    0    0 -0.15639275136E-01  0.21864012470E-03  0.15980230590E-01  0.50000500000E+01  0.50000000000E+01 0. -1.
</event>
<event>
 4    1  0.4944208E-021  0.5000050E+01  0.7818608E-02  0.2136455E+00
        -11   -1    0    0    0    0  0.00000000000E+00  0.00000000000E+00  0.50000499739E+01  0.50000500000E+01  0.51100000000E-03 0.  1.
         11   -1    0    0    0    0 -0.00000000000E+00 -0.00000000000E+00 -0.50000499739E+01  0.50000500000E+01  0.51100000000E-03 0. -1.
         50    1    1    2    0    0  0.15304221131E-01 -0.13926584683E-01  0.84754678111E-02  0.50000500000E+01  0.50000000000E+01 0.  1.
         50    1    1    2    0    0 -0.15304221131E-01  0.13926584683E-01 -0.84754678111E-02  0.50000500000E+01  0.50000000000E+01 0. -1.
</event>
<event>
 4    1  0.4944208E-021  0.5000050E+01  0.7818608E-02  0.2136455E+00
        -11   -1    0    0    0    0  0.00000000000E+00  0.00000000000E+00  0.50000499739E+01  0.50000500000E+01  0.51100000000E-03 0. -1.
         11   -1    0    0    0    0 -0.00000000000E+00 -0.00000000000E+00 -0.50000499739E+01  0.50000500000E+01  0.51100000000E-03 0.  1.
         50    1    1    2    0    0 -0.13492479748E-01  0.36544319587E-02 -0.17452811157E-01  0.50000500000E+01  0.50000000000E+01 0. -1.
         50    1    1    2    0    0  0.13492479748E-01 -0.36544319587E-02  0.17452811157E-01  0.50000500000E+01  0.50000000000E+01 0.  0.
</event>
<event>
 4    1  0.4944208E-021  0.5000050E+01  0.7818608E-02  0.2136455E+00
        -11   -1    0    0    0    0  0.00000000000E+00  0.00000000000E+00  0.50000499739E+01  0.50000500000E+01  0.51100000000E-03 0. -1.
         11   -1    0    0    0    0 -0.00000000000E+00 -0.00000000000E+00 -0.50000499739E+01  0.50000500000E+01  0.51100000000E-03 0.  1.
         50    1    1    2    0    0 -0.19725889079E-01  0.94633203236E-02 -0.46192389518E-02  0.50000500000E+01  0.50000000000E+01 0.  1.
         50    1    1    2    0    0  0.19725889079E-01 -0.94633203236E-02  0.46192389518E-02  0.50000500000E+01  0.50000000000E+01 0. -1.
</event>
<event>
 4    1  0.4944208E-021  0.5000050E+01  0.7818608E-02  0.2136455E+00
        -11   -1    0    0    0    0  0.00000000000E+00  0.00000000000E+00  0.50000499739E+01  0.50000500000E+01  0.51100000000E-03 0.  1.
         11   -1    0    0    0    0 -0.00000000000E+00 -0.00000000000E+00 -0.50000499739E+01  0.50000500000E+01  0.51100000000E-03 0. -1.
         50    1    1    2    0    0 -0.19382144232E-01  0.10983163454E-01  0.19248650678E-02  0.50000500000E+01  0.50000000000E+01 0. -1.
         50    1    1    2    0    0  0.19382144232E-01 -0.10983163454E-01 -0.19248650678E-02  0.50000500000E+01  0.50000000000E+01 0.  1.
</event>
<event>
 4    1  0.4944208E-021  0.5000050E+01  0.7818608E-02  0.2136455E+00
        -11   -1    0    0    0    0  0.00000000000E+00  0.00000000000E+00  0.50000499739E+01  0.50000500000E+01  0.51100000000E-03 0. -1.
         11   -1    0    0    0    0 -0.00000000000E+00 -0.00000000000E+00 -0.50000499739E+01  0.50000500000E+01  0.51100000000E-03 0.  1.
         50    1    1    2    0    0  0.96163721560E-02  0.18256811151E-01 -0.86149134158E-02  0.50000500000E+01  0.50000000000E+01 0.  1.
         50    1    1    2    0    0 -0.96163721560E-02 -0.18256811151E-01  0.86149134158E-02  0.50000500000E+01  0.50000000000E+01 0. -1.
</event>
<event>
 4    1  0.4944208E-021  0.5000050E+01  0.7818608E-02  0.2136455E+00
        -11   -1    0    0    0    0  0.00000000000E+00  0.00000000000E+00  0.50000499739E+01  0.50000500000E+01  0.51100000000E-03 0. -1.
         11   -1    0    0    0    0 -0.00000000000E+00 -0.00000000000E+00 -0.50000499739E+01  0.50000500000E+01  0.51100000000E-03 0.  1.
         50    1    1    2    0    0 -0.20116068094E-01 -0.52249791908E-02  0.82489936888E-02  0.50000500000E+01  0.50000000000E+01 0. -1.
         50    1    1    2    0    0  0.20116068094E-01  0.52249791908E-02 -0.82489936888E-02  0.50000500000E+01  0.50000000000E+01 0.  1.
</event>
<event>
 4    1  0.4944208E-021  0.5000050E+01  0.7818608E-02  0.2136455E+00
        -11   -1    0    0    0    0  0.00000000000E+00  0.00000000000E+00  0.50000499739E+01  0.50000500000E+01  0.51100000000E-03 0. -1.
         11   -1    0    0    0    0 -0.00000000000E+00 -0.00000000000E+00 -0.50000499739E+01  0.50000500000E+01  0.51100000000E-03 0.  1.
         50    1    1    2    0    0  0.18744500306E-01  0.26486415987E-02 -0.11900878368E-01  0.50000500000E+01  0.50000000000E+01 0.  1.
         50    1    1    2    0    0 -0.18744500306E-01 -0.26486415987E-02  0.11900878368E-01  0.50000500000E+01  0.50000000000E+01 0. -1.
</event>
<event>
 4    1  0.4944208E-021  0.5000050E+01  0.7818608E-02  0.2136455E+00
        -11   -1    0    0    0    0  0.00000000000E+00  0.00000000000E+00  0.50000499739E+01  0.50000500000E+01  0.51100000000E-03 0.  1.
         11   -1    0    0    0    0 -0.00000000000E+00 -0.00000000000E+00 -0.50000499739E+01  0.50000500000E+01  0.51100000000E-03 0. -1.
         50    1    1    2    0    0 -0.18296599240E-01 -0.11916206984E-01 -0.48208886497E-02  0.50000500000E+01  0.50000000000E+01 0.  1.
         50    1    1    2    0    0  0.18296599240E-01  0.11916206984E-01  0.48208886497E-02  0.50000500000E+01  0.50000000000E+01 0.  0.
</event>
<event>
 4    1  0.1763907E-020  0.5000050E+01  0.7818608E-02  0.2136455E+00
        -11   -1    0    0    0    0  0.00000000000E+00  0.00000000000E+00  0.50000499739E+01  0.50000500000E+01  0.51100000000E-03 0. -1.
         11   -1    0    0    0    0 -0.00000000000E+00 -0.00000000000E+00 -0.50000499739E+01  0.50000500000E+01  0.51100000000E-03 0.  1.
         50    1    1    2    0    0  0.32736294711E-03  0.11676483946E-02 -0.22327828616E-01  0.50000500000E+01  0.50000000000E+01 0.  0.
         50    1    1    2    0    0 -0.32736294711E-03 -0.11676483946E-02  0.22327828616E-01  0.50000500000E+01  0.50000000000E+01 0. -1.
</event>
<event>
 4    1  0.4944208E-021  0.5000050E+01  0.7818608E-02  0.2136455E+00
        -11   -1    0    0    0    0  0.00000000000E+00  0.00000000000E+00  0.50000499739E+01  0.50000500000E+01  0.51100000000E-03 0.  1.
         11   -1    0    0    0    0 -0.00000000000E+00 -0.00000000000E+00 -0.50000499739E+01  0.50000500000E+01  0.51100000000E-03 0. -1.
         50    1    1    2    0    0  0.42711908338E-03 -0.20956466565E-01  0.77875913093E-02  0.50000500000E+01  0.50000000000E+01 0. -1.
         50    1    1    2    0    0 -0.42711908338E-03  0.20956466565E-01 -0.77875913093E-02  0.50000500000E+01  0.50000000000E+01 0.  0.
</event>
<event>
 4    1  0.4944208E-021  0.5000050E+01  0.7818608E-02  0.2136455E+00
        -11   -1    0    0    0    0  0.00000000000E+00  0.00000000000E+00  0.50000499739E+01  0.50000500000E+01  0.51100000000E-03 0.  1.
         11   -1    0    0    0    0 -0.00000000000E+00 -0.00000000000E+00 -0.50000499739E+01  0.50000500000E+01  0.51100000000E-03 0. -1.
         50    1    1    2    0    0 -0.21558515999E-01  0.36278324440E-02 -0.46980548821E-02  0.50000500000E+01  0.50000000000E+01 0.  0.
         50    1    1    2    0    0  0.21558515999E-01 -0.36278324440E-02  0.46980548821E-02  0.50000500000E+01  0.50000000000E+01 0. -1.
</event>
<event>
 4    1  0.4944208E-021  0.5000050E+01  0.7818608E-02  0.2136455E+00
        -11   -1    0    0    0    0  0.00000000000E+00  0.00000000000E+00  0.50000499739E+01  0.50000500000E+01  0.51100000000E-03 0. -1.
         11   -1    0    0    0    0 -0.00000000000E+00 -0.00000000000E+00 -0.50000499739E+01  0.50000500000E+01  0.51100000000E-03 0.  1.
         50    1    1    2    0    0  0.57462016050E-02  0.20636876060E-01  0.64111632011E-02  0.50000500000E+01  0.50000000000E+01 0.  0.
         50    1    1    2    0    0 -0.57462016050E-02 -0.20636876060E-01 -0.64111632011E-02  0.50000500000E+01  0.50000000000E+01 0.  0.
</event>
<event>
 4    1  0.4944208E-021  0.5000050E+01  0.7818608E-02  0.2136455E+00
        -11   -1    0    0    0    0  0.00000000000E+00  0.00000000000E+00  0.50000499739E+01  0.50000500000E+01  0.51100000000E-03 0. -1.
         11   -1    0    0    0    0 -0.00000000000E+00 -0.00000000000E+00 -0.50000499739E+01  0.50000500000E+01  0.51100000000E-03 0.  1.
         50    1    1    2    0    0 -0.13461884461E-01  0.10299512676E-02 -0.17824684209E-01  0.50000500000E+01  0.50000000000E+01 0. -1.
         50    1    1    2    0    0  0.13461884461E-01 -0.10299512676E-02  0.17824684209E-01  0.50000500000E+01  0.50000000000E+01 0. -1.
</event>
<event>
 4    1  0.4944208E-021  0.5000050E+01  0.7818608E-02  0.2136455E+00
        -11   -1    0    0    0    0  0.00000000000E+00  0.00000000000E+00  0.50000499739E+01  0.50000500000E+01  0.51100000000E-03 0. -1.
         11   -1    0    0    0    0 -0.00000000000E+00 -0.00000000000E+00 -0.50000499739E+01  0.50000500000E+01  0.51100000000E-03 0.  1.
         50    1    1    2    0    0  0.11959179845E-01  0.53819493929E-02 -0.18111188204E-01  0.50000500000E+01  0.50000000000E+01 0.  1.
         50    1    1    2    0    0 -0.11959179845E-01 -0.53819493929E-02  0.18111188204E-01  0.50000500000E+01  0.50000000000E+01 0. -1.
</event>
<event>
 4    1  0.4944208E-021  0.5000050E+01  0.7818608E-02  0.2136455E+00
        -11   -1    0    0    0    0  0.00000000000E+00  0.00000000000E+00  0.50000499739E+01  0.50000500000E+01  0.51100000000E-03 0.  1.
         11   -1    0    0    0    0 -0.00000000000E+00 -0.00000000000E+00 -0.50000499739E+01  0.50000500000E+01  0.51100000000E-03 0. -1.
         50    1    1    2    0    0  0.77806393347E-02  0.17861653492E-01 -0.10973854659E-01  0.50000500000E+01  0.50000000000E+01 0.  1.
         50    1    1    2    0    0 -0.77806393347E-02 -0.17861653492E-01  0.10973854659E-01  0.50000500000E+01  0.50000000000E+01 0.  1.
</event>
<event>
 4    1  0.4944208E-021  0.5000050E+01  0.7818608E-02  0.2136455E+00
        -11   -1    0    0    0    0  0.00000000000E+00  0.00000000000E+00  0.50000499739E+01  0.50000500000E+01  0.51100000000E-03 0.  1.
         11   -1    0    0    0    0 -0.00000000000E+00 -0.00000000000E+00 -0.50000499739E+01  0.50000500000E+01  0.51100000000E-03 0. -1.
         50    1    1    2    0    0  0.18049586957E-01  0.96949467396E-02  0.89567247584E-02  0.50000500000E+01  0.50000000000E+01 0.  1.
         50    1    1    2    0    0 -0.18049586957E-01 -0.96949467396E-02 -0.89567247584E-02  0.50000500000E+01  0.50000000000E+01 0.  1.
</event>
<event>
 4    1  0.4944208E-021  0.5000050E+01  0.7818608E-02  0.2136455E+00
        -11   -1    0    0    0    0  0.00000000000E+00  0.00000000000E+00  0.50000499739E+01  0.50000500000E+01  0.51100000000E-03 0.  1.
         11   -1    0    0    0    0 -0.00000000000E+00 -0.00000000000E+00 -0.50000499739E+01  0.50000500000E+01  0.51100000000E-03 0. -1.
         50    1    1    2    0    0 -0.93204259784E-02  0.86989398259E-02 -0.18370100857E-01  0.50000500000E+01  0.50000000000E+01 0.  0.
         50    1    1    2    0    0  0.93204259784E-02 -0.86989398259E-02  0.18370100857E-01  0.50000500000E+01  0.50000000000E+01 0. -1.
</event>
<event>
 4    1  0.4944208E-021  0.5000050E+01  0.7818608E-02  0.2136455E+00
        -11   -1    0    0    0    0  0.00000000000E+00  0.00000000000E+00  0.50000499739E+01  0.50000500000E+01  0.51100000000E-03 0.  1.
         11   -1    0    0    0    0 -0.00000000000E+00 -0.00000000000E+00 -0.50000499739E+01  0.50000500000E+01  0.51100000000E-03 0. -1.
         50    1    1    2    0    0  0.13338358760E-01 -0.29952935503E-02 -0.17695166067E-01  0.50000500000E+01  0.50000000000E+01 0. -1.
         50    1    1    2    0    0 -0.13338358760E-01  0.29952935503E-02  0.17695166067E-01  0.50000500000E+01  0.50000000000E+01 0.  1.
</event>
<event>
 4    1  0.4944208E-021  0.5000050E+01  0.7818608E-02  0.2136455E+00
        -11   -1    0    0    0    0  0.00000000000E+00  0.00000000000E+00  0.50000499739E+01  0.50000500000E+01  0.51100000000E-03 0.  1.
         11   -1    0    0    0    0 -0.00000000000E+00 -0.00000000000E+00 -0.50000499739E+01  0.50000500000E+01  0.51100000000E-03 0. -1.
         50    1    1    2    0    0 -0.14222221583E-01  0.15805711187E-01 -0.69217344010E-02  0.50000500000E+01  0.50000000000E+01 0. -1.
         50    1    1    2    0    0  0.14222221583E-01 -0.15805711187E-01  0.69217344010E-02  0.50000500000E+01  0.50000000000E+01 0.  1.
</event>
<event>
 4    1  0.4944208E-021  0.5000050E+01  0.7818608E-02  0.2136455E+00
        -11   -1    0    0    0    0  0.00000000000E+00  0.00000000000E+00  0.50000499739E+01  0.50000500000E+01  0.51100000000E-03 0. -1.
         11   -1    0    0    0    0 -0.00000000000E+00 -0.00000000000E+00 -0.50000499739E+01  0.50000500000E+01  0.51100000000E-03 0.  1.
         50    1    1    2    0    0  0.15719536527E-01  0.15730486598E-01  0.23346226185E-02  0.50000500000E+01  0.50000000000E+01 0.  1.
         50    1    1    2    0    0 -0.15719536527E-01 -0.15730486598E-01 -0.23346226185E-02  0.50000500000E+01  0.50000000000E+01 0.  0.
</event>
<event>
 4    1  0.4944208E-021  0.5000050E+01  0.7818608E-02  0.2136455E+00
        -11   -1    0    0    0    0  0.00000000000E+00  0.00000000000E+00  0.50000499739E+01  0.50000500000E+01  0.51100000000E-03 0. -1.
         11   -1    0    0    0    0 -0.00000000000E+00 -0.00000000000E+00 -0.50000499739E+01  0.50000500000E+01  0.51100000000E-03 0.  1.
         50    1    1    2    0    0  0.95492863439E-02  0.10295730856E-01 -0.17401481444E-01  0.50000500000E+01  0.50000000000E+01 0.  0.
         50    1    1    2    0    0 -0.95492863439E-02 -0.10295730856E-01  0.17401481444E-01  0.50000500000E+01  0.50000000000E+01 0.  0.
</event>
<event>
 4    1  0.4944208E-021  0.5000050E+01  0.7818608E-02  0.2136455E+00
        -11   -1    0    0    0    0  0.00000000000E+00  0.00000000000E+00  0.50000499739E+01  0.50000500000E+01  0.51100000000E-03 0. -1.
         11   -1    0    0    0    0 -0.00000000000E+00 -0.00000000000E+00 -0.50000499739E+01  0.50000500000E+01  0.51100000000E-03 0.  1.
         50    1    1    2    0    0 -0.17739182043E-01 -0.27437722189E-02  0.13334002942E-01  0.50000500000E+01  0.50000000000E+01 0.  0.
         50    1    1    2    0    0  0.17739182043E-01  0.27437722189E-02 -0.13334002942E-01  0.50000500000E+01  0.50000000000E+01 0.  0.
</event>
<event>
 4    1  0.4944208E-021  0.5000050E+01  0.7818608E-02  0.2136455E+00
        -11   -1    0    0    0    0  0.00000000000E+00  0.00000000000E+00  0.50000499739E+01  0.50000500000E+01  0.51100000000E-03 0. -1.
         11   -1    0    0    0    0 -0.00000000000E+00 -0.00000000000E+00 -0.50000499739E+01  0.50000500000E+01  0.51100000000E-03 0.  1.
         50    1    1    2    0    0  0.15930721812E-01  0.10804557388E-01  0.11378758376E-01  0.50000500000E+01  0.50000000000E+01 0. -1.
         50    1    1    2    0    0 -0.15930721812E-01 -0.10804557388E-01 -0.11378758376E-01  0.50000500000E+01  0.50000000000E+01 0.  1.
</event>
<event>
 4    1  0.4944208E-021  0.5000050E+01  0.7818608E-02  0.2136455E+00
        -11   -1    0    0    0    0  0.00000000000E+00  0.00000000000E+00  0.50000499739E+01  0.50000500000E+01  0.51100000000E-03 0.  1.
         11   -1    0    0    0    0 -0.00000000000E+00 -0.00000000000E+00 -0.50000499739E+01  0.50000500000E+01  0.51100000000E-03 0. -1.
         50    1    1    2    0    0  0.63228347970E-03 -0.22023735842E-01  0.38154655257E-02  0.50000500000E+01  0.50000000000E+01 0.  0.
         50    1    1    2    0    0 -0.63228347970E-03  0.22023735842E-01 -0.38154655257E-02  0.50000500000E+01  0.50000000000E+01 0.  1.
</event>
<event>
 4    1  0.4944208E-021  0.5000050E+01  0.7818608E-02  0.2136455E+00
        -11   -1    0    0    0    0  0.00000000000E+00  0.00000000000E+00  0.50000499739E+01  0.50000500000E+01  0.51100000000E-03 0. -1.
         11   -1    0    0    0    0 -0.00000000000E+00 -0.00000000000E+00 -0.50000499739E+01  0.50000500000E+01  0.51100000000E-03 0.  1.
         50    1    1    2    0    0 -0.67258873346E-02 -0.22575335202E-02  0.21205388041E-01  0.50000500000E+01  0.50000000000E+01 0. -1.
         50    1    1    2    0    0  0.67258873346E-02  0.22575335202E-02 -0.21205388041E-01  0.50000500000E+01  0.50000000000E+01 0.  0.
</event>
<event>
 4    1  0.4944208E-021  0.5000050E+01  0.7818608E-02  0.2136455E+00
        -11   -1    0    0    0    0  0.00000000000E+00  0.00000000000E+00  0.50000499739E+01  0.50000500000E+01  0.51100000000E-03 0.  1.
         11   -1    0    0    0    0 -0.00000000000E+00 -0.00000000000E+00 -0.50000499739E+01  0.50000500000E+01  0.51100000000E-03 0. -1.
         50    1    1    2    0    0  0.75522518390E-02 -0.45910042785E-02  0.20539928721E-01  0.50000500000E+01  0.50000000000E+01 0.  0.
         50    1    1    2    0    0 -0.75522518390E-02  0.45910042785E-02 -0.20539928721E-01  0.50000500000E+01  0.50000000000E+01 0. -1.
</event>
<event>
 4    1  0.4944208E-021  0.5000050E+01  0.7818608E-02  0.2136455E+00
        -11   -1    0    0    0    0  0.00000000000E+00  0.00000000000E+00  0.50000499739E+01  0.50000500000E+01  0.51100000000E-03 0.  1.
         11   -1    0    0    0    0 -0.00000000000E+00 -0.00000000000E+00 -0.50000499739E+01  0.50000500000E+01  0.51100000000E-03 0. -1.
         50    1    1    2    0    0 -0.82329733907E-02 -0.59864146624E-03  0.20781296339E-01  0.50000500000E+01  0.50000000000E+01 0.  0.
         50    1    1    2    0    0  0.82329733907E-02  0.59864146624E-03 -0.20781296339E-01  0.50000500000E+01  0.50000000000E+01 0. -1.
</event>
<event>
 4    1  0.4944208E-021  0.5000050E+01  0.7818608E-02  0.2136455E+00
        -11   -1    0    0    0    0  0.00000000000E+00  0.00000000000E+00  0.50000499739E+01  0.50000500000E+01  0.51100000000E-03 0.  1.
         11   -1    0    0    0    0 -0.00000000000E+00 -0.00000000000E+00 -0.50000499739E+01  0.50000500000E+01  0.51100000000E-03 0. -1.
         50    1    1    2    0    0  0.18301166824E-01  0.11896243891E-01  0.48527491343E-02  0.50000500000E+01  0.50000000000E+01 0.  1.
         50    1    1    2    0    0 -0.18301166824E-01 -0.11896243891E-01 -0.48527491343E-02  0.50000500000E+01  0.50000000000E+01 0. -1.
</event>
<event>
 4    1  0.4944208E-021  0.5000050E+01  0.7818608E-02  0.2136455E+00
        -11   -1    0    0    0    0  0.00000000000E+00  0.00000000000E+00  0.50000499739E+01  0.50000500000E+01  0.51100000000E-03 0.  1.
         11   -1    0    0    0    0 -0.00000000000E+00 -0.00000000000E+00 -0.50000499739E+01  0.50000500000E+01  0.51100000000E-03 0. -1.
         50    1    1    2    0    0  0.44305259351E-02  0.11805295474E-01  0.18466400264E-01  0.50000500000E+01  0.50000000000E+01 0.  0.
         50    1    1    2    0    0 -0.44305259351E-02 -0.11805295474E-01 -0.18466400264E-01  0.50000500000E+01  0.50000000000E+01 0. -1.
</event>
<event>
 4    1  0.4944208E-021  0.5000050E+01  0.7818608E-02  0.2136455E+00
        -11   -1    0    0    0    0  0.00000000000E+00  0.00000000000E+00  0.50000499739E+01  0.50000500000E+01  0.51100000000E-03 0.  1.
         11   -1    0    0    0    0 -0.00000000000E+00 -0.00000000000E+00 -0.50000499739E+01  0.50000500000E+01  0.51100000000E-03 0. -1.
         50    1    1    2    0    0 -0.55598517269E-02 -0.11937993567E-01 -0.18071382304E-01  0.50000500000E+01  0.50000000000E+01 0.  1.
         50    1    1    2    0    0  0.55598517269E-02  0.11937993567E-01  0.18071382304E-01  0.50000500000E+01  0.50000000000E+01 0.  0.
</event>
<event>
 4    1  0.4944208E-021  0.5000050E+01  0.7818608E-02  0.2136455E+00
        -11   -1    0    0    0    0  0.00000000000E+00  0.00000000000E+00  0.50000499739E+01  0.50000500000E+01  0.51100000000E-03 0.  1.
         11   -1    0    0    0    0 -0.00000000000E+00 -0.00000000000E+00 -0.50000499739E+01  0.50000500000E+01  0.51100000000E-03 0. -1.
         50    1    1    2    0    0 -0.13561167385E-01  0.16936096128E-01  0.54097954757E-02  0.50000500000E+01  0.50000000000E+01 0.  0.
         50    1    1    2    0    0  0.13561167385E-01 -0.16936096128E-01 -0.54097954757E-02  0.50000500000E+01  0.50000000000E+01 0.  1.
</event>
<event>
 4    1  0.4944208E-021  0.5000050E+01  0.7818608E-02  0.2136455E+00
        -11   -1    0    0    0    0  0.00000000000E+00  0.00000000000E+00  0.50000499739E+01  0.50000500000E+01  0.51100000000E-03 0. -1.
         11   -1    0    0    0    0 -0.00000000000E+00 -0.00000000000E+00 -0.50000499739E+01  0.50000500000E+01  0.51100000000E-03 0.  1.
         50    1    1    2    0    0  0.62191200532E-03  0.18285475950E-01 -0.12855236083E-01  0.50000500000E+01  0.50000000000E+01 0.  0.
         50    1    1    2    0    0 -0.62191200532E-03 -0.18285475950E-01  0.12855236083E-01  0.50000500000E+01  0.50000000000E+01 0.  0.
</event>
<event>
 4    1  0.4944208E-021  0.5000050E+01  0.7818608E-02  0.2136455E+00
        -11   -1    0    0    0    0  0.00000000000E+00  0.00000000000E+00  0.50000499739E+01  0.50000500000E+01  0.51100000000E-03 0. -1.
         11   -1    0    0    0    0 -0.00000000000E+00 -0.00000000000E+00 -0.50000499739E+01  0.50000500000E+01  0.51100000000E-03 0.  1.
         50    1    1    2    0    0  0.14657819605E-01 -0.43200201941E-02  0.16324467830E-01  0.50000500000E+01  0.50000000000E+01 0.  0.
         50    1    1    2    0    0 -0.14657819605E-01  0.43200201941E-02 -0.16324467830E-01  0.50000500000E+01  0.50000000000E+01 0.  0.
</event>
<event>
 4    1  0.4944208E-021  0.5000050E+01  0.7818608E-02  0.2136455E+00
        -11   -1    0    0    0    0  0.00000000000E+00  0.00000000000E+00  0.50000499739E+01  0.50000500000E+01  0.51100000000E-03 0.  1.
         11   -1    0    0    0    0 -0.00000000000E+00 -0.00000000000E+00 -0.50000499739E+01  0.50000500000E+01  0.51100000000E-03 0. -1.
         50    1    1    2    0    0  0.75859397091E-02  0.20073685647E-01  0.62851541951E-02  0.50000500000E+01  0.50000000000E+01 0. -1.
         50    1    1    2    0    0 -0.75859397091E-02 -0.20073685647E-01 -0.62851541951E-02  0.50000500000E+01  0.50000000000E+01 0.  0.
</event>
<event>
 4    1  0.4944208E-021  0.5000050E+01  0.7818608E-02  0.2136455E+00
        -11   -1    0    0    0    0  0.00000000000E+00  0.00000000000E+00  0.50000499739E+01  0.50000500000E+01  0.51100000000E-03 0.  1.
         11   -1    0    0    0    0 -0.00000000000E+00 -0.00000000000E+00 -0.50000499739E+01  0.50000500000E+01  0.51100000000E-03 0. -1.
         50    1    1    2    0    0 -0.15643049233E-01  0.78097948598E-02  0.13939319027E-01  0.50000500000E+01  0.50000000000E+01 0.  1.
         50    1    1    2    0    0  0.15643049233E-01 -0.78097948598E-02 -0.13939319027E-01  0.50000500000E+01  0.50000000000E+01 0. -1.
</event>
<event>
 4    1  0.4944208E-021  0.5000050E+01  0.7818608E-02  0.2136455E+00
        -11   -1    0    0    0    0  0.00000000000E+00  0.00000000000E+00  0.50000499739E+01  0.50000500000E+01  0.51100000000E-03 0.  1.
         11   -1    0    0    0    0 -0.00000000000E+00 -0.00000000000E+00 -0.50000499739E+01  0.50000500000E+01  0.51100000000E-03 0. -1.
         50    1    1    2    0    0 -0.16029297664E-01  0.77020541004E-02  0.13555164293E-01  0.50000500000E+01  0.50000000000E+01 0.  0.
         50    1    1    2    0    0  0.16029297664E-01 -0.77020541004E-02 -0.13555164293E-01  0.50000500000E+01  0.50000000000E+01 0.  0.
</event>
<event>
 4    1  0.4944208E-021  0.5000050E+01  0.7818608E-02  0.2136455E+00
        -11   -1    0    0    0    0  0.00000000000E+00  0.00000000000E+00  0.50000499739E+01  0.50000500000E+01  0.51100000000E-03 0. -1.
         11   -1    0    0    0    0 -0.00000000000E+00 -0.00000000000E+00 -0.50000499739E+01  0.50000500000E+01  0.51100000000E-03 0.  1.
         50    1    1    2    0    0  0.10756625727E-01  0.17481415623E-01  0.88711673869E-02  0.50000500000E+01  0.50000000000E+01 0.  0.
         50    1    1    2    0    0 -0.10756625727E-01 -0.17481415623E-01 -0.88711673869E-02  0.50000500000E+01  0.50000000000E+01 0.  0.
</event>
<event>
 4    1  0.4944208E-021  0.5000050E+01  0.7818608E-02  0.2136455E+00
        -11   -1    0    0    0    0  0.00000000000E+00  0.00000000000E+00  0.50000499739E+01  0.50000500000E+01  0.51100000000E-03 0.  1.
         11   -1    0    0    0    0 -0.00000000000E+00 -0.00000000000E+00 -0.50000499739E+01  0.50000500000E+01  0.51100000000E-03 0. -1.
         50    1    1    2    0    0  0.14291265072E-01  0.16262679151E-01  0.55935238855E-02  0.50000500000E+01  0.50000000000E+01 0.  1.
         50    1    1    2    0    0 -0.14291265072E-01 -0.16262679151E-01 -0.55935238855E-02  0.50000500000E+01  0.50000000000E+01 0.  0.
</event>
<event>
 4    1  0.4944208E-021  0.5000050E+01  0.7818608E-02  0.2136455E+00
        -11   -1    0    0    0    0  0.00000000000E+00  0.00000000000E+00  0.50000499739E+01  0.50000500000E+01  0.51100000000E-03 0.  1.
         11   -1    0    0    0    0 -0.00000000000E+00 -0.00000000000E+00 -0.50000499739E+01  0.50000500000E+01  0.51100000000E-03 0. -1.
         50    1    1    2    0    0  0.19893367572E-01 -0.70156262015E-02 -0.74187206194E-02  0.50000500000E+01  0.50000000000E+01 0. -1.
         50    1    1    2    0    0 -0.19893367572E-01  0.70156262015E-02  0.74187206194E-02  0.50000500000E+01  0.50000000000E+01 0.  1.
</event>
<event>
 4    1  0.4944208E-021  0.5000050E+01  0.7818608E-02  0.2136455E+00
        -11   -1    0    0    0    0  0.00000000000E+00  0.00000000000E+00  0.50000499739E+01  0.50000500000E+01  0.51100000000E-03 0. -1.
         11   -1    0    0    0    0 -0.00000000000E+00 -0.00000000000E+00 -0.50000499739E+01  0.50000500000E+01  0.51100000000E-03 0.  1.
         50    1    1    2    0    0 -0.66058054937E-02 -0.17260230155E-01 -0.12587703872E-01  0.50000500000E+01  0.50000000000E+01 0.  0.
         50    1    1    2    0    0  0.66058054937E-02  0.17260230155E-01  0.12587703872E-01  0.50000500000E+01  0.50000000000E+01 0.  1.
</event>
<event>
 4    1  0.4944208E-021  0.5000050E+01  0.7818608E-02  0.2136455E+00
        -11   -1    0    0    0    0  0.00000000000E+00  0.00000000000E+00  0.50000499739E+01  0.50000500000E+01  0.51100000000E-03 0.  1.
         11   -1    0    0    0    0 -0.00000000000E+00 -0.00000000000E+00 -0.50000499739E+01  0.50000500000E+01  0.51100000000E-03 0. -1.
         50    1    1    2    0    0  0.43492707619E-02 -0.21598968451E-01  0.38171855698E-02  0.50000500000E+01  0.50000000000E+01 0.  1.
         50    1    1    2    0    0 -0.43492707619E-02  0.21598968451E-01 -0.38171855698E-02  0.50000500000E+01  0.50000000000E+01 0. -1.
</event>
<event>
 4    1  0.4944208E-021  0.5000050E+01  0.7818608E-02  0.2136455E+00
        -11   -1    0    0    0    0  0.00000000000E+00  0.00000000000E+00  0.50000499739E+01  0.50000500000E+01  0.51100000000E-03 0.  1.
         11   -1    0    0    0    0 -0.00000000000E+00 -0.00000000000E+00 -0.50000499739E+01  0.50000500000E+01  0.51100000000E-03 0. -1.
         50    1    1    2    0    0 -0.11789260251E-01 -0.11447745723E-01  0.15164595629E-01  0.50000500000E+01  0.50000000000E+01 0. -1.
         50    1    1    2    0    0  0.11789260251E-01  0.11447745723E-01 -0.15164595629E-01  0.50000500000E+01  0.50000000000E+01 0. -1.
</event>
<event>
 4    1  0.4944208E-021  0.5000050E+01  0.7818608E-02  0.2136455E+00
        -11   -1    0    0    0    0  0.00000000000E+00  0.00000000000E+00  0.50000499739E+01  0.50000500000E+01  0.51100000000E-03 0.  1.
         11   -1    0    0    0    0 -0.00000000000E+00 -0.00000000000E+00 -0.50000499739E+01  0.50000500000E+01  0.51100000000E-03 0. -1.
         50    1    1    2    0    0 -0.17831971639E-01  0.13397628472E-01 -0.15896033516E-02  0.50000500000E+01  0.50000000000E+01 0. -1.
         50    1    1    2    0    0  0.17831971639E-01 -0.13397628472E-01  0.15896033516E-02  0.50000500000E+01  0.50000000000E+01 0.  1.
</event>
<event>
 4    1  0.4944208E-021  0.5000050E+01  0.7818608E-02  0.2136455E+00
        -11   -1    0    0    0    0  0.00000000000E+00  0.00000000000E+00  0.50000499739E+01  0.50000500000E+01  0.51100000000E-03 0. -1.
         11   -1    0    0    0    0 -0.00000000000E+00 -0.00000000000E+00 -0.50000499739E+01  0.50000500000E+01  0.51100000000E-03 0.  1.
         50    1    1    2    0    0  0.16086513205E-01  0.14713042399E-01  0.49752363025E-02  0.50000500000E+01  0.50000000000E+01 0.  1.
         50    1    1    2    0    0 -0.16086513205E-01 -0.14713042399E-01 -0.49752363025E-02  0.50000500000E+01  0.50000000000E+01 0.  0.
</event>
<event>
 4    1  0.4944208E-021  0.5000050E+01  0.7818608E-02  0.2136455E+00
        -11   -1    0    0    0    0  0.00000000000E+00  0.00000000000E+00  0.50000499739E+01  0.50000500000E+01  0.51100000000E-03 0. -1.
         11   -1    0    0    0    0 -0.00000000000E+00 -0.00000000000E+00 -0.50000499739E+01  0.50000500000E+01  0.51100000000E-03 0.  1.
         50    1    1    2    0    0 -0.18390646481E-01  0.82077308917E-02 -0.97169838749E-02  0.50000500000E+01  0.50000000000E+01 0.  0.
         50    1    1    2    0    0  0.18390646481E-01 -0.82077308917E-02  0.97169838749E-02  0.50000500000E+01  0.50000000000E+01 0.  1.
</event>
<event>
 4    1  0.4944208E-021  0.5000050E+01  0.7818608E-02  0.2136455E+00
        -11   -1    0    0    0    0  0.00000000000E+00  0.00000000000E+00  0.50000499739E+01  0.50000500000E+01  0.51100000000E-03 0. -1.
         11   -1    0    0    0    0 -0.00000000000E+00 -0.00000000000E+00 -0.50000499739E+01  0.50000500000E+01  0.51100000000E-03 0.  1.
         50    1    1    2    0    0  0.95677095020E-02 -0.15054484850E-01  0.13484210054E-01  0.50000500000E+01  0.50000000000E+01 0.  1.
         50    1    1    2    0    0 -0.95677095020E-02  0.15054484850E-01 -0.13484210054E-01  0.50000500000E+01  0.50000000000E+01 0.  1.
</event>
<event>
 4    1  0.4944208E-021  0.5000050E+01  0.7818608E-02  0.2136455E+00
        -11   -1    0    0    0    0  0.00000000000E+00  0.00000000000E+00  0.50000499739E+01  0.50000500000E+01  0.51100000000E-03 0. -1.
         11   -1    0    0    0    0 -0.00000000000E+00 -0.00000000000E+00 -0.50000499739E+01  0.50000500000E+01  0.51100000000E-03 0.  1.
         50    1    1    2    0    0 -0.21995377486E-01  0.36183963462E-02  0.17643914307E-02  0.50000500000E+01  0.50000000000E+01 0.  0.
         50    1    1    2    0    0  0.21995377486E-01 -0.36183963462E-02 -0.17643914307E-02  0.50000500000E+01  0.50000000000E+01 0.  1.
</event>
<event>
 4    1  0.4944208E-021  0.5000050E+01  0.7818608E-02  0.2136455E+00
        -11   -1    0    0    0    0  0.00000000000E+00  0.00000000000E+00  0.50000499739E+01  0.50000500000E+01  0.51100000000E-03 0. -1.
         11   -1    0    0    0    0 -0.00000000000E+00 -0.00000000000E+00 -0.50000499739E+01  0.50000500000E+01  0.51100000000E-03 0.  1.
         50    1    1    2    0    0 -0.17914121860E-03 -0.21243281179E-01  0.69780665782E-02  0.50000500000E+01  0.50000000000E+01 0. -1.
         50    1    1    2    0    0  0.17914121860E-03  0.21243281179E-01 -0.69780665782E-02  0.50000500000E+01  0.50000000000E+01 0.  1.
</event>
<event>
 4    1  0.4944208E-021  0.5000050E+01  0.7818608E-02  0.2136455E+00
        -11   -1    0    0    0    0  0.00000000000E+00  0.00000000000E+00  0.50000499739E+01  0.50000500000E+01  0.51100000000E-03 0. -1.
         11   -1    0    0    0    0 -0.00000000000E+00 -0.00000000000E+00 -0.50000499739E+01  0.50000500000E+01  0.51100000000E-03 0.  1.
         50    1    1    2    0    0 -0.17297583025E-01  0.47876067837E-02  0.13336976523E-01  0.50000500000E+01  0.50000000000E+01 0. -1.
         50    1    1    2    0    0  0.17297583025E-01 -0.47876067837E-02 -0.13336976523E-01  0.50000500000E+01  0.50000000000E+01 0.  1.
</event>
<event>
 4    1  0.4944208E-021  0.5000050E+01  0.7818608E-02  0.2136455E+00
        -11   -1    0    0    0    0  0.00000000000E+00  0.00000000000E+00  0.50000499739E+01  0.50000500000E+01  0.51100000000E-03 0. -1.
         11   -1    0    0    0    0 -0.00000000000E+00 -0.00000000000E+00 -0.50000499739E+01  0.50000500000E+01  0.51100000000E-03 0.  1.
         50    1    1    2    0    0 -0.13982825180E-01 -0.16913705315E-01  0.42906494248E-02  0.50000500000E+01  0.50000000000E+01 0. -1.
         50    1    1    2    0    0  0.13982825180E-01  0.16913705315E-01 -0.42906494248E-02  0.50000500000E+01  0.50000000000E+01 0.  1.
</event>
<event>
 4    1  0.4944208E-021  0.5000050E+01  0.7818608E-02  0.2136455E+00
        -11   -1    0    0    0    0  0.00000000000E+00  0.00000000000E+00  0.50000499739E+01  0.50000500000E+01  0.51100000000E-03 0.  1.
         11   -1    0    0    0    0 -0.00000000000E+00 -0.00000000000E+00 -0.50000499739E+01  0.50000500000E+01  0.51100000000E-03 0. -1.
         50    1    1    2    0    0  0.17969575122E-01  0.28466869115E-03  0.13304729748E-01  0.50000500000E+01  0.50000000000E+01 0.  0.
         50    1    1    2    0    0 -0.17969575122E-01 -0.28466869115E-03 -0.13304729748E-01  0.50000500000E+01  0.50000000000E+01 0.  0.
</event>
<event>
 4    1  0.4944208E-021  0.5000050E+01  0.7818608E-02  0.2136455E+00
        -11   -1    0    0    0    0  0.00000000000E+00  0.00000000000E+00  0.50000499739E+01  0.50000500000E+01  0.51100000000E-03 0.  1.
         11   -1    0    0    0    0 -0.00000000000E+00 -0.00000000000E+00 -0.50000499739E+01  0.50000500000E+01  0.51100000000E-03 0. -1.
         50    1    1    2    0    0  0.19409002270E-02 -0.43198668580E-02 -0.21853470128E-01  0.50000500000E+01  0.50000000000E+01 0. -1.
         50    1    1    2    0    0 -0.19409002270E-02  0.43198668580E-02  0.21853470128E-01  0.50000500000E+01  0.50000000000E+01 0.  0.
</event>
<event>
 4    1  0.4944208E-021  0.5000050E+01  0.7818608E-02  0.2136455E+00
        -11   -1    0    0    0    0  0.00000000000E+00  0.00000000000E+00  0.50000499739E+01  0.50000500000E+01  0.51100000000E-03 0. -1.
         11   -1    0    0    0    0 -0.00000000000E+00 -0.00000000000E+00 -0.50000499739E+01  0.50000500000E+01  0.51100000000E-03 0.  1.
         50    1    1    2    0    0 -0.10570912785E-02 -0.86101980937E-02  0.20609452851E-01  0.50000500000E+01  0.50000000000E+01 0. -1.
         50    1    1    2    0    0  0.10570912785E-02  0.86101980937E-02 -0.20609452851E-01  0.50000500000E+01  0.50000000000E+01 0.  1.
</event>
<event>
 4    1  0.4944208E-021  0.5000050E+01  0.7818608E-02  0.2136455E+00
        -11   -1    0    0    0    0  0.00000000000E+00  0.00000000000E+00  0.50000499739E+01  0.50000500000E+01  0.51100000000E-03 0. -1.
         11   -1    0    0    0    0 -0.00000000000E+00 -0.00000000000E+00 -0.50000499739E+01  0.50000500000E+01  0.51100000000E-03 0.  1.
         50    1    1    2    0    0 -0.15437587239E-03 -0.18119979743E-01  0.13101335894E-01  0.50000500000E+01  0.50000000000E+01 0.  0.
         50    1    1    2    0    0  0.15437587239E-03  0.18119979743E-01 -0.13101335894E-01  0.50000500000E+01  0.50000000000E+01 0.  0.
</event>
<event>
 4    1  0.4944208E-021  0.5000050E+01  0.7818608E-02  0.2136455E+00
        -11   -1    0    0    0    0  0.00000000000E+00  0.00000000000E+00  0.50000499739E+01  0.50000500000E+01  0.51100000000E-03 0.  1.
         11   -1    0    0    0    0 -0.00000000000E+00 -0.00000000000E+00 -0.50000499739E+01  0.50000500000E+01  0.51100000000E-03 0. -1.
         50    1    1    2    0    0  0.68858351469E-02 -0.14392280168E-01  0.15666845435E-01  0.50000500000E+01  0.50000000000E+01 0.  0.
         50    1    1    2    0    0 -0.68858351469E-02  0.14392280168E-01 -0.15666845435E-01  0.50000500000E+01  0.50000000000E+01 0. -1.
</event>
<event>
 4    1  0.4944208E-021  0.5000050E+01  0.7818608E-02  0.2136455E+00
        -11   -1    0    0    0    0  0.00000000000E+00  0.00000000000E+00  0.50000499739E+01  0.50000500000E+01  0.51100000000E-03 0.  1.
         11   -1    0    0    0    0 -0.00000000000E+00 -0.00000000000E+00 -0.50000499739E+01  0.50000500000E+01  0.51100000000E-03 0. -1.
         50    1    1    2    0    0  0.80264367980E-02  0.20314864898E-01 -0.47838349167E-02  0.50000500000E+01  0.50000000000E+01 0. -1.
         50    1    1    2    0    0 -0.80264367980E-02 -0.20314864898E-01  0.47838349167E-02  0.50000500000E+01  0.50000000000E+01 0.  1.
</event>
<event>
 4    1  0.4944208E-021  0.5000050E+01  0.7818608E-02  0.2136455E+00
        -11   -1    0    0    0    0  0.00000000000E+00  0.00000000000E+00  0.50000499739E+01  0.50000500000E+01  0.51100000000E-03 0.  1.
         11   -1    0    0    0    0 -0.00000000000E+00 -0.00000000000E+00 -0.50000499739E+01  0.50000500000E+01  0.51100000000E-03 0. -1.
         50    1    1    2    0    0 -0.11649863841E-01 -0.17493862089E-01  0.76320352264E-02  0.50000500000E+01  0.50000000000E+01 0.  0.
         50    1    1    2    0    0  0.11649863841E-01  0.17493862089E-01 -0.76320352264E-02  0.50000500000E+01  0.50000000000E+01 0.  1.
</event>
<event>
 4    1  0.4944208E-021  0.5000050E+01  0.7818608E-02  0.2136455E+00
        -11   -1    0    0    0    0  0.00000000000E+00  0.00000000000E+00  0.50000499739E+01  0.50000500000E+01  0.51100000000E-03 0.  1.
         11   -1    0    0    0    0 -0.00000000000E+00 -0.00000000000E+00 -0.50000499739E+01  0.50000500000E+01  0.51100000000E-03 0. -1.
         50    1    1    2    0    0 -0.19899685476E-01 -0.97211017053E-02 -0.30830503711E-02  0.50000500000E+01  0.50000000000E+01 0.  0.
         50    1    1    2    0    0  0.19899685476E-01  0.97211017053E-02  0.30830503711E-02  0.50000500000E+01  0.50000000000E+01 0.  0.
</event>
<event>
 4    1  0.4944208E-021  0.5000050E+01  0.7818608E-02  0.2136455E+00
        -11   -1    0    0    0    0  0.00000000000E+00  0.00000000000E+00  0.50000499739E+01  0.50000500000E+01  0.51100000000E-03 0. -1.
         11   -1    0    0    0    0 -0.00000000000E+00 -0.00000000000E+00 -0.50000499739E+01  0.50000500000E+01  0.51100000000E-03 0.  1.
         50    1    1    2    0    0 -0.21652328721E-01 -0.43737341393E-02 -0.34712549077E-02  0.50000500000E+01  0.50000000000E+01 0.  0.
         50    1    1    2    0    0  0.21652328721E-01  0.43737341393E-02  0.34712549077E-02  0.50000500000E+01  0.50000000000E+01 0.  1.
</event>
<event>
 4    1  0.4944208E-021  0.5000050E+01  0.7818608E-02  0.2136455E+00
        -11   -1    0    0    0    0  0.00000000000E+00  0.00000000000E+00  0.50000499739E+01  0.50000500000E+01  0.51100000000E-03 0. -1.
         11   -1    0    0    0    0 -0.00000000000E+00 -0.00000000000E+00 -0.50000499739E+01  0.50000500000E+01  0.51100000000E-03 0.  1.
         50    1    1    2    0    0 -0.14484455596E-01  0.17034968774E-01  0.11351182804E-03  0.50000500000E+01  0.50000000000E+01 0.  1.
         50    1    1    2    0    0  0.14484455596E-01 -0.17034968774E-01 -0.11351182804E-03  0.50000500000E+01  0.50000000000E+01 0. -1.
</event>
<event>
 4    1  0.4944208E-021  0.5000050E+01  0.7818608E-02  0.2136455E+00
        -11   -1    0    0    0    0  0.00000000000E+00  0.00000000000E+00  0.50000499739E+01  0.50000500000E+01  0.51100000000E-03 0. -1.
         11   -1    0    0    0    0 -0.00000000000E+00 -0.00000000000E+00 -0.50000499739E+01  0.50000500000E+01  0.51100000000E-03 0.  1.
         50    1    1    2    0    0  0.71455967933E-03 -0.12950870975E-01 -0.18214468025E-01  0.50000500000E+01  0.50000000000E+01 0.  1.
         50    1    1    2    0    0 -0.71455967933E-03  0.12950870975E-01  0.18214468025E-01  0.50000500000E+01  0.50000000000E+01 0.  0.
</event>
<event>
 4    1  0.4944208E-021  0.5000050E+01  0.7818608E-02  0.2136455E+00
        -11   -1    0    0    0    0  0.00000000000E+00  0.00000000000E+00  0.50000499739E+01  0.50000500000E+01  0.51100000000E-03 0.  1.
         11   -1    0    0    0    0 -0.00000000000E+00 -0.00000000000E+00 -0.50000499739E+01  0.50000500000E+01  0.51100000000E-03 0. -1.
         50    1    1    2    0    0  0.15146698068E-01  0.16167827235E-01  0.30300825320E-02  0.50000500000E+01  0.50000000000E+01 0. -1.
         50    1    1    2    0    0 -0.15146698068E-01 -0.16167827235E-01 -0.30300825320E-02  0.50000500000E+01  0.50000000000E+01 0.  1.
</event>
<event>
 4    1  0.4944208E-021  0.5000050E+01  0.7818608E-02  0.2136455E+00
        -11   -1    0    0    0    0  0.00000000000E+00  0.00000000000E+00  0.50000499739E+01  0.50000500000E+01  0.51100000000E-03 0. -1.
         11   -1    0    0    0    0 -0.00000000000E+00 -0.00000000000E+00 -0.50000499739E+01  0.50000500000E+01  0.51100000000E-03 0.  1.
         50    1    1    2    0    0  0.11252433022E-01  0.14496928676E-01 -0.12775926974E-01  0.50000500000E+01  0.50000000000E+01 0. -1.
         50    1    1    2    0    0 -0.11252433022E-01 -0.14496928676E-01  0.12775926974E-01  0.50000500000E+01  0.50000000000E+01 0.  0.
</event>
<event>
 4    1  0.4944208E-021  0.5000050E+01  0.7818608E-02  0.2136455E+00
        -11   -1    0    0    0    0  0.00000000000E+00  0.00000000000E+00  0.50000499739E+01  0.50000500000E+01  0.51100000000E-03 0.  1.
         11   -1    0    0    0    0 -0.00000000000E+00 -0.00000000000E+00 -0.50000499739E+01  0.50000500000E+01  0.51100000000E-03 0. -1.
         50    1    1    2    0    0  0.17801442198E-01 -0.13322573603E-01 -0.23706936213E-02  0.50000500000E+01  0.50000000000E+01 0.  0.
         50    1    1    2    0    0 -0.17801442198E-01  0.13322573603E-01  0.23706936213E-02  0.50000500000E+01  0.50000000000E+01 0.  1.
</event>
<event>
 4    1  0.4944208E-021  0.5000050E+01  0.7818608E-02  0.2136455E+00
        -11   -1    0    0    0    0  0.00000000000E+00  0.00000000000E+00  0.50000499739E+01  0.50000500000E+01  0.51100000000E-03 0.  1.
         11   -1    0    0    0    0 -0.00000000000E+00 -0.00000000000E+00 -0.50000499739E+01  0.50000500000E+01  0.51100000000E-03 0. -1.
         50    1    1    2    0    0 -0.21689418082E-01 -0.44543192761E-02  0.31194042787E-02  0.50000500000E+01  0.50000000000E+01 0. -1.
         50    1    1    2    0    0  0.21689418082E-01  0.44543192761E-02 -0.31194042787E-02  0.50000500000E+01  0.50000000000E+01 0.  1.
</event>
<event>
 4    1  0.4944208E-021  0.5000050E+01  0.7818608E-02  0.2136455E+00
        -11   -1    0    0    0    0  0.00000000000E+00  0.00000000000E+00  0.50000499739E+01  0.50000500000E+01  0.51100000000E-03 0. -1.
         11   -1    0    0    0    0 -0.00000000000E+00 -0.00000000000E+00 -0.50000499739E+01  0.50000500000E+01  0.51100000000E-03 0.  1.
         50    1    1    2    0    0  0.19443199634E-01 -0.64929258010E-02 -0.89334429272E-02  0.50000500000E+01  0.50000000000E+01 0.  1.
         50    1    1    2    0    0 -0.19443199634E-01  0.64929258010E-02  0.89334429272E-02  0.50000500000E+01  0.50000000000E+01 0. -1.
</event>
<event>
 4    1  0.4944208E-021  0.5000050E+01  0.7818608E-02  0.2136455E+00
        -11   -1    0    0    0    0  0.00000000000E+00  0.00000000000E+00  0.50000499739E+01  0.50000500000E+01  0.51100000000E-03 0.  1.
         11   -1    0    0    0    0 -0.00000000000E+00 -0.00000000000E+00 -0.50000499739E+01  0.50000500000E+01  0.51100000000E-03 0. -1.
         50    1    1    2    0    0 -0.32582803913E-02  0.21611109702E-01 -0.47271604961E-02  0.50000500000E+01  0.50000000000E+01 0. -1.
         50    1    1    2    0    0  0.32582803913E-02 -0.21611109702E-01  0.47271604961E-02  0.50000500000E+01  0.50000000000E+01 0.  1.
</event>
<event>
 4    1  0.4944208E-021  0.5000050E+01  0.7818608E-02  0.2136455E+00
        -11   -1    0    0    0    0  0.00000000000E+00  0.00000000000E+00  0.50000499739E+01  0.50000500000E+01  0.51100000000E-03 0.  1.
         11   -1    0    0    0    0 -0.00000000000E+00 -0.00000000000E+00 -0.50000499739E+01  0.50000500000E+01  0.51100000000E-03 0. -1.
         50    1    1    2    0    0  0.94460574538E-02 -0.11457070119E-01  0.16718553851E-01  0.50000500000E+01  0.50000000000E+01 0.  0.
         50    1    1    2    0    0 -0.94460574538E-02  0.11457070119E-01 -0.16718553851E-01  0.50000500000E+01  0.50000000000E+01 0.  0.
</event>
<event>
 4    1  0.4944208E-021  0.5000050E+01  0.7818608E-02  0.2136455E+00
        -11   -1    0    0    0    0  0.00000000000E+00  0.00000000000E+00  0.50000499739E+01  0.50000500000E+01  0.51100000000E-03 0. -1.
         11   -1    0    0    0    0 -0.00000000000E+00 -0.00000000000E+00 -0.50000499739E+01  0.50000500000E+01  0.51100000000E-03 0.  1.
         50    1    1    2    0    0 -0.10831342379E-01  0.84118051386E-02 -0.17661428497E-01  0.50000500000E+01  0.50000000000E+01 0.  0.
         50    1    1    2    0    0  0.10831342379E-01 -0.84118051386E-02  0.17661428497E-01  0.50000500000E+01  0.50000000000E+01 0.  0.
</event>
<event>
 4    1  0.4944208E-021  0.5000050E+01  0.7818608E-02  0.2136455E+00
        -11   -1    0    0    0    0  0.00000000000E+00  0.00000000000E+00  0.50000499739E+01  0.50000500000E+01  0.51100000000E-03 0. -1.
         11   -1    0    0    0    0 -0.00000000000E+00 -0.00000000000E+00 -0.50000499739E+01  0.50000500000E+01  0.51100000000E-03 0.  1.
         50    1    1    2    0    0  0.16729232051E-01  0.10300985588E-01 -0.10678248495E-01  0.50000500000E+01  0.50000000000E+01 0.  1.
         50    1    1    2    0    0 -0.16729232051E-01 -0.10300985588E-01  0.10678248495E-01  0.50000500000E+01  0.50000000000E+01 0.  1.
</event>
<event>
 4    1  0.4944208E-021  0.5000050E+01  0.7818608E-02  0.2136455E+00
        -11   -1    0    0    0    0  0.00000000000E+00  0.00000000000E+00  0.50000499739E+01  0.50000500000E+01  0.51100000000E-03 0.  1.
         11   -1    0    0    0    0 -0.00000000000E+00 -0.00000000000E+00 -0.50000499739E+01  0.50000500000E+01  0.51100000000E-03 0. -1.
         50    1    1    2    0    0 -0.22044023737E-01  0.24210828871E-02  0.28638916062E-02  0.50000500000E+01  0.50000000000E+01 0. -1.
         50    1    1    2    0    0  0.22044023737E-01 -0.24210828871E-02 -0.28638916062E-02  0.50000500000E+01  0.50000000000E+01 0.  0.
</event>
<event>
 4    1  0.4944208E-021  0.5000050E+01  0.7818608E-02  0.2136455E+00
        -11   -1    0    0    0    0  0.00000000000E+00  0.00000000000E+00  0.50000499739E+01  0.50000500000E+01  0.51100000000E-03 0.  1.
         11   -1    0    0    0    0 -0.00000000000E+00 -0.00000000000E+00 -0.50000499739E+01  0.50000500000E+01  0.51100000000E-03 0. -1.
         50    1    1    2    0    0 -0.14543390527E-01  0.72498982837E-03  0.16969581071E-01  0.50000500000E+01  0.50000000000E+01 0.  1.
         50    1    1    2    0    0  0.14543390527E-01 -0.72498982837E-03 -0.16969581071E-01  0.50000500000E+01  0.50000000000E+01 0. -1.
</event>
<event>
 4    1  0.4944208E-021  0.5000050E+01  0.7818608E-02  0.2136455E+00
        -11   -1    0    0    0    0  0.00000000000E+00  0.00000000000E+00  0.50000499739E+01  0.50000500000E+01  0.51100000000E-03 0.  1.
         11   -1    0    0    0    0 -0.00000000000E+00 -0.00000000000E+00 -0.50000499739E+01  0.50000500000E+01  0.51100000000E-03 0. -1.
         50    1    1    2    0    0  0.76652917103E-02  0.57446781926E-02 -0.20205060640E-01  0.50000500000E+01  0.50000000000E+01 0.  0.
         50    1    1    2    0    0 -0.76652917103E-02 -0.57446781926E-02  0.20205060640E-01  0.50000500000E+01  0.50000000000E+01 0.  1.
</event>
<event>
 4    1  0.4944208E-021  0.5000050E+01  0.7818608E-02  0.2136455E+00
        -11   -1    0    0    0    0  0.00000000000E+00  0.00000000000E+00  0.50000499739E+01  0.50000500000E+01  0.51100000000E-03 0. -1.
         11   -1    0    0    0    0 -0.00000000000E+00 -0.00000000000E+00 -0.50000499739E+01  0.50000500000E+01  0.51100000000E-03 0.  1.
         50    1    1    2    0    0  0.59424991514E-02  0.14133650607E-01  0.16276643522E-01  0.50000500000E+01  0.50000000000E+01 0. -1.
         50    1    1    2    0    0 -0.59424991514E-02 -0.14133650607E-01 -0.16276643522E-01  0.50000500000E+01  0.50000000000E+01 0.  1.
</event>
<event>
 4    1  0.4944208E-021  0.5000050E+01  0.7818608E-02  0.2136455E+00
        -11   -1    0    0    0    0  0.00000000000E+00  0.00000000000E+00  0.50000499739E+01  0.50000500000E+01  0.51100000000E-03 0. -1.
         11   -1    0    0    0    0 -0.00000000000E+00 -0.00000000000E+00 -0.50000499739E+01  0.50000500000E+01  0.51100000000E-03 0.  1.
         50    1    1    2    0    0  0.14425789490E-01 -0.14284685932E-01 -0.93726647984E-02  0.50000500000E+01  0.50000000000E+01 0.  1.
         50    1    1    2    0    0 -0.14425789490E-01  0.14284685932E-01  0.93726647984E-02  0.50000500000E+01  0.50000000000E+01 0. -1.
</event>
<event>
 4    1  0.4944208E-021  0.5000050E+01  0.7818608E-02  0.2136455E+00
        -11   -1    0    0    0    0  0.00000000000E+00  0.00000000000E+00  0.50000499739E+01  0.50000500000E+01  0.51100000000E-03 0. -1.
         11   -1    0    0    0    0 -0.00000000000E+00 -0.00000000000E+00 -0.50000499739E+01  0.50000500000E+01  0.51100000000E-03 0.  1.
         50    1    1    2    0    0  0.18135150476E-01 -0.86260898427E-02 -0.98340933095E-02  0.50000500000E+01  0.50000000000E+01 0.  0.
         50    1    1    2    0    0 -0.18135150476E-01  0.86260898427E-02  0.98340933095E-02  0.50000500000E+01  0.50000000000E+01 0.  0.
</event>
<event>
 4    1  0.4944208E-021  0.5000050E+01  0.7818608E-02  0.2136455E+00
        -11   -1    0    0    0    0  0.00000000000E+00  0.00000000000E+00  0.50000499739E+01  0.50000500000E+01  0.51100000000E-03 0.  1.
         11   -1    0    0    0    0 -0.00000000000E+00 -0.00000000000E+00 -0.50000499739E+01  0.50000500000E+01  0.51100000000E-03 0. -1.
         50    1    1    2    0    0 -0.11222692878E-01 -0.13314973777E-01  0.14027299736E-01  0.50000500000E+01  0.50000000000E+01 0.  1.
         50    1    1    2    0    0  0.11222692878E-01  0.13314973777E-01 -0.14027299736E-01  0.50000500000E+01  0.50000000000E+01 0. -1.
</event>
<event>
 4    1  0.4944208E-021  0.5000050E+01  0.7818608E-02  0.2136455E+00
        -11   -1    0    0    0    0  0.00000000000E+00  0.00000000000E+00  0.50000499739E+01  0.50000500000E+01  0.51100000000E-03 0. -1.
         11   -1    0    0    0    0 -0.00000000000E+00 -0.00000000000E+00 -0.50000499739E+01  0.50000500000E+01  0.51100000000E-03 0.  1.
         50    1    1    2    0    0  0.15623573344E-01  0.45567691137E-02 -0.15334350694E-01  0.50000500000E+01  0.50000000000E+01 0.  0.
         50    1    1    2    0    0 -0.15623573344E-01 -0.45567691137E-02  0.15334350694E-01  0.50000500000E+01  0.50000000000E+01 0.  1.
</event>
<event>
 4    1  0.4944208E-021  0.5000050E+01  0.7818608E-02  0.2136455E+00
        -11   -1    0    0    0    0  0.00000000000E+00  0.00000000000E+00  0.50000499739E+01  0.50000500000E+01  0.51100000000E-03 0. -1.
         11   -1    0    0    0    0 -0.00000000000E+00 -0.00000000000E+00 -0.50000499739E+01  0.50000500000E+01  0.51100000000E-03 0.  1.
         50    1    1    2    0    0 -0.12020163475E-01  0.18437563866E-01  0.39464425393E-02  0.50000500000E+01  0.50000000000E+01 0. -1.
         50    1    1    2    0    0  0.12020163475E-01 -0.18437563866E-01 -0.39464425393E-02  0.50000500000E+01  0.50000000000E+01 0.  1.
</event>
<event>
 4    1  0.4944208E-021  0.5000050E+01  0.7818608E-02  0.2136455E+00
        -11   -1    0    0    0    0  0.00000000000E+00  0.00000000000E+00  0.50000499739E+01  0.50000500000E+01  0.51100000000E-03 0.  1.
         11   -1    0    0    0    0 -0.00000000000E+00 -0.00000000000E+00 -0.50000499739E+01  0.50000500000E+01  0.51100000000E-03 0. -1.
         50    1    1    2    0    0 -0.15578043710E-01 -0.16041210259E-01  0.81410182977E-04  0.50000500000E+01  0.50000000000E+01 0. -1.
         50    1    1    2    0    0  0.15578043710E-01  0.16041210259E-01 -0.81410182977E-04  0.50000500000E+01  0.50000000000E+01 0.  1.
</event>
<event>
 4    1  0.4944208E-021  0.5000050E+01  0.7818608E-02  0.2136455E+00
        -11   -1    0    0    0    0  0.00000000000E+00  0.00000000000E+00  0.50000499739E+01  0.50000500000E+01  0.51100000000E-03 0. -1.
         11   -1    0    0    0    0 -0.00000000000E+00 -0.00000000000E+00 -0.50000499739E+01  0.50000500000E+01  0.51100000000E-03 0.  1.
         50    1    1    2    0    0 -0.21851182257E-01  0.38602541383E-02 -0.27616610902E-02  0.50000500000E+01  0.50000000000E+01 0. -1.
         50    1    1    2    0    0  0.21851182257E-01 -0.38602541383E-02  0.27616610902E-02  0.50000500000E+01  0.50000000000E+01 0.  0.
</event>
<event>
 4    1  0.4944208E-021  0.5000050E+01  0.7818608E-02  0.2136455E+00
        -11   -1    0    0    0    0  0.00000000000E+00  0.00000000000E+00  0.50000499739E+01  0.50000500000E+01  0.51100000000E-03 0. -1.
         11   -1    0    0    0    0 -0.00000000000E+00 -0.00000000000E+00 -0.50000499739E+01  0.50000500000E+01  0.51100000000E-03 0.  1.
         50    1    1    2    0    0  0.15945657620E-01 -0.15673589116E-01  0.27768198834E-03  0.50000500000E+01  0.50000000000E+01 0. -1.
         50    1    1    2    0    0 -0.15945657620E-01  0.15673589116E-01 -0.27768198834E-03  0.50000500000E+01  0.50000000000E+01 0.  0.
</event>
<event>
 4    1  0.4944208E-021  0.5000050E+01  0.7818608E-02  0.2136455E+00
        -11   -1    0    0    0    0  0.00000000000E+00  0.00000000000E+00  0.50000499739E+01  0.50000500000E+01  0.51100000000E-03 0.  1.
         11   -1    0    0    0    0 -0.00000000000E+00 -0.00000000000E+00 -0.50000499739E+01  0.50000500000E+01  0.51100000000E-03 0. -1.
         50    1    1    2    0    0  0.13282916361E-01  0.46528309689E-02  0.17375781908E-01  0.50000500000E+01  0.50000000000E+01 0.  0.
         50    1    1    2    0    0 -0.13282916361E-01 -0.46528309689E-02 -0.17375781908E-01  0.50000500000E+01  0.50000000000E+01 0. -1.
</event>
<event>
 4    1  0.4944208E-021  0.5000050E+01  0.7818608E-02  0.2136455E+00
        -11   -1    0    0    0    0  0.00000000000E+00  0.00000000000E+00  0.50000499739E+01  0.50000500000E+01  0.51100000000E-03 0.  1.
         11   -1    0    0    0    0 -0.00000000000E+00 -0.00000000000E+00 -0.50000499739E+01  0.50000500000E+01  0.51100000000E-03 0. -1.
         50    1    1    2    0    0 -0.10354203262E-01 -0.41864858550E-02  0.19371791631E-01  0.50000500000E+01  0.50000000000E+01 0.  1.
         50    1    1    2    0    0  0.10354203262E-01  0.41864858550E-02 -0.19371791631E-01  0.50000500000E+01  0.50000000000E+01 0. -1.
</event>
<event>
 4    1  0.4944208E-021  0.5000050E+01  0.7818608E-02  0.2136455E+00
        -11   -1    0    0    0    0  0.00000000000E+00  0.00000000000E+00  0.50000499739E+01  0.50000500000E+01  0.51100000000E-03 0. -1.
         11   -1    0    0    0    0 -0.00000000000E+00 -0.00000000000E+00 -0.50000499739E+01  0.50000500000E+01  0.51100000000E-03 0.  1.
         50    1    1    2    0    0 -0.18532839303E-01  0.80529229403E-02 -0.95753224214E-02  0.50000500000E+01  0.50000000000E+01 0.  1.
         50    1    1    2    0    0  0.18532839303E-01 -0.80529229403E-02  0.95753224214E-02  0.50000500000E+01  0.50000000000E+01 0. -1.
</event>
<event>
 4    1  0.4944208E-021  0.5000050E+01  0.7818608E-02  0.2136455E+00
        -11   -1    0    0    0    0  0.00000000000E+00  0.00000000000E+00  0.50000499739E+01  0.50000500000E+01  0.51100000000E-03 0. -1.
         11   -1    0    0    0    0 -0.00000000000E+00 -0.00000000000E+00 -0.50000499739E+01  0.50000500000E+01  0.51100000000E-03 0.  1.
         50    1    1    2    0    0 -0.50465365689E-02 -0.20668844708E-01 -0.68799583641E-02  0.50000500000E+01  0.50000000000E+01 0. -1.
         50    1    1    2    0    0  0.50465365689E-02  0.20668844708E-01  0.68799583641E-02  0.50000500000E+01  0.50000000000E+01 0.  0.
</event>
<event>
 4    1  0.4944208E-021  0.5000050E+01  0.7818608E-02  0.2136455E+00
        -11   -1    0    0    0    0  0.00000000000E+00  0.00000000000E+00  0.50000499739E+01  0.50000500000E+01  0.51100000000E-03 0.  1.
         11   -1    0    0    0    0 -0.00000000000E+00 -0.00000000000E+00 -0.50000499739E+01  0.50000500000E+01  0.51100000000E-03 0. -1.
         50    1    1    2    0    0  0.17534578377E-01 -0.50323449564E-02  0.12931224435E-01  0.50000500000E+01  0.50000000000E+01 0.  0.
         50    1    1    2    0    0 -0.17534578377E-01  0.50323449564E-02 -0.12931224435E-01  0.50000500000E+01  0.50000000000E+01 0.  1.
</event>
<event>
 4    1  0.4944208E-021  0.5000050E+01  0.7818608E-02  0.2136455E+00
        -11   -1    0    0    0    0  0.00000000000E+00  0.00000000000E+00  0.50000499739E+01  0.50000500000E+01  0.51100000000E-03 0.  1.
         11   -1    0    0    0    0 -0.00000000000E+00 -0.00000000000E+00 -0.50000499739E+01  0.50000500000E+01  0.51100000000E-03 0. -1.
         50    1    1    2    0    0  0.47687306317E-02  0.14778258816E-01  0.16089275140E-01  0.50000500000E+01  0.50000000000E+01 0.  1.
         50    1    1    2    0    0 -0.47687306317E-02 -0.14778258816E-01 -0.16089275140E-01  0.50000500000E+01  0.50000000000E+01 0. -1.
</event>
<event>
 4    1  0.1755684E-020  0.5000050E+01  0.7818608E-02  0.2136455E+00
        -11   -1    0    0    0    0  0.00000000000E+00  0.00000000000E+00  0.50000499739E+01  0.50000500000E+01  0.51100000000E-03 0.  1.
         11   -1    0    0    0    0 -0.00000000000E+00 -0.00000000000E+00 -0.50000499739E+01  0.50000500000E+01  0.51100000000E-03 0. -1.
         50    1    1    2    0    0  0.22290050507E-03 -0.18598805239E-02 -0.22282137685E-01  0.50000500000E+01  0.50000000000E+01 0. -1.
         50    1    1    2    0    0 -0.22290050507E-03  0.18598805239E-02  0.22282137685E-01  0.50000500000E+01  0.50000000000E+01 0.  0.
</event>
<event>
 4    1  0.4944208E-021  0.5000050E+01  0.7818608E-02  0.2136455E+00
        -11   -1    0    0    0    0  0.00000000000E+00  0.00000000000E+00  0.50000499739E+01  0.50000500000E+01  0.51100000000E-03 0. -1.
         11   -1    0    0    0    0 -0.00000000000E+00 -0.00000000000E+00 -0.50000499739E+01  0.50000500000E+01  0.51100000000E-03 0.  1.
         50    1    1    2    0    0 -0.69958251786E-02 -0.20689995652E-01  0.47942684497E-02  0.50000500000E+01  0.50000000000E+01 0. -1.
         50    1    1    2    0    0  0.69958251786E-02  0.20689995652E-01 -0.47942684497E-02  0.50000500000E+01  0.50000000000E+01 0.  1.
</event>
<event>
 4    1  0.4944208E-021  0.5000050E+01  0.7818608E-02  0.2136455E+00
        -11   -1    0    0    0    0  0.00000000000E+00  0.00000000000E+00  0.50000499739E+01  0.50000500000E+01  0.51100000000E-03 0. -1.
         11   -1    0    0    0    0 -0.00000000000E+00 -0.00000000000E+00 -0.50000499739E+01  0.50000500000E+01  0.51100000000E-03 0.  1.
         50    1    1    2    0    0 -0.13944510863E-01  0.17414629208E-01  0.15112267737E-02  0.50000500000E+01  0.50000000000E+01 0.  1.
         50    1    1    2    0    0  0.13944510863E-01 -0.17414629208E-01 -0.15112267737E-02  0.50000500000E+01  0.50000000000E+01 0. -1.
</event>
<event>
 4    1  0.4944208E-021  0.5000050E+01  0.7818608E-02  0.2136455E+00
        -11   -1    0    0    0    0  0.00000000000E+00  0.00000000000E+00  0.50000499739E+01  0.50000500000E+01  0.51100000000E-03 0. -1.
         11   -1    0    0    0    0 -0.00000000000E+00 -0.00000000000E+00 -0.50000499739E+01  0.50000500000E+01  0.51100000000E-03 0.  1.
         50    1    1    2    0    0  0.32022876442E-02 -0.19041693540E-01 -0.11276602369E-01  0.50000500000E+01  0.50000000000E+01 0. -1.
         50    1    1    2    0    0 -0.32022876442E-02  0.19041693540E-01  0.11276602369E-01  0.50000500000E+01  0.50000000000E+01 0.  0.
</event>
<event>
 4    1  0.4944208E-021  0.5000050E+01  0.7818608E-02  0.2136455E+00
        -11   -1    0    0    0    0  0.00000000000E+00  0.00000000000E+00  0.50000499739E+01  0.50000500000E+01  0.51100000000E-03 0.  1.
         11   -1    0    0    0    0 -0.00000000000E+00 -0.00000000000E+00 -0.50000499739E+01  0.50000500000E+01  0.51100000000E-03 0. -1.
         50    1    1    2    0    0  0.16479286505E-01 -0.53324599304E-02  0.14142152856E-01  0.50000500000E+01  0.50000000000E+01 0.  0.
         50    1    1    2    0    0 -0.16479286505E-01  0.53324599304E-02 -0.14142152856E-01  0.50000500000E+01  0.50000000000E+01 0.  0.
</event>
<event>
 4    1  0.4944208E-021  0.5000050E+01  0.7818608E-02  0.2136455E+00
        -11   -1    0    0    0    0  0.00000000000E+00  0.00000000000E+00  0.50000499739E+01  0.50000500000E+01  0.51100000000E-03 0.  1.
         11   -1    0    0    0    0 -0.00000000000E+00 -0.00000000000E+00 -0.50000499739E+01  0.50000500000E+01  0.51100000000E-03 0. -1.
         50    1    1    2    0    0  0.49900724036E-03  0.22323731677E-01  0.11851142492E-02  0.50000500000E+01  0.50000000000E+01 0.  0.
         50    1    1    2    0    0 -0.49900724036E-03 -0.22323731677E-01 -0.11851142492E-02  0.50000500000E+01  0.50000000000E+01 0.  1.
</event>
<event>
 4    1  0.4944208E-021  0.5000050E+01  0.7818608E-02  0.2136455E+00
        -11   -1    0    0    0    0  0.00000000000E+00  0.00000000000E+00  0.50000499739E+01  0.50000500000E+01  0.51100000000E-03 0.  1.
         11   -1    0    0    0    0 -0.00000000000E+00 -0.00000000000E+00 -0.50000499739E+01  0.50000500000E+01  0.51100000000E-03 0. -1.
         50    1    1    2    0    0  0.16435251348E-01 -0.13490993618E-01 -0.69194005741E-02  0.50000500000E+01  0.50000000000E+01 0.  0.
         50    1    1    2    0    0 -0.16435251348E-01  0.13490993618E-01  0.69194005741E-02  0.50000500000E+01  0.50000000000E+01 0.  1.
</event>
<event>
 4    1  0.4944208E-021  0.5000050E+01  0.7818608E-02  0.2136455E+00
        -11   -1    0    0    0    0  0.00000000000E+00  0.00000000000E+00  0.50000499739E+01  0.50000500000E+01  0.51100000000E-03 0.  1.
         11   -1    0    0    0    0 -0.00000000000E+00 -0.00000000000E+00 -0.50000499739E+01  0.50000500000E+01  0.51100000000E-03 0. -1.
         50    1    1    2    0    0  0.84418731335E-02 -0.72791607445E-02  0.19384300267E-01  0.50000500000E+01  0.50000000000E+01 0.  1.
         50    1    1    2    0    0 -0.84418731335E-02  0.72791607445E-02 -0.19384300267E-01  0.50000500000E+01  0.50000000000E+01 0.  0.
</event>
<event>
 4    1  0.1749403E-020  0.5000050E+01  0.7818608E-02  0.2136455E+00
        -11   -1    0    0    0    0  0.00000000000E+00  0.00000000000E+00  0.50000499739E+01  0.50000500000E+01  0.51100000000E-03 0. -1.
         11   -1    0    0    0    0 -0.00000000000E+00 -0.00000000000E+00 -0.50000499739E+01  0.50000500000E+01  0.51100000000E-03 0.  1.
         50    1    1    2    0    0 -0.23789189950E-02  0.54395380238E-03  0.22227176129E-01  0.50000500000E+01  0.50000000000E+01 0.  0.
         50    1    1    2    0    0  0.23789189950E-02 -0.54395380238E-03 -0.22227176129E-01  0.50000500000E+01  0.50000000000E+01 0.  1.
</event>
<event>
 4    1  0.4944208E-021  0.5000050E+01  0.7818608E-02  0.2136455E+00
        -11   -1    0    0    0    0  0.00000000000E+00  0.00000000000E+00  0.50000499739E+01  0.50000500000E+01  0.51100000000E-03 0. -1.
         11   -1    0    0    0    0 -0.00000000000E+00 -0.00000000000E+00 -0.50000499739E+01  0.50000500000E+01  0.51100000000E-03 0.  1.
         50    1    1    2    0    0 -0.10152745554E-01 -0.13710318765E-01  0.14455151922E-01  0.50000500000E+01  0.50000000000E+01 0. -1.
         50    1    1    2    0    0  0.10152745554E-01  0.13710318765E-01 -0.14455151922E-01  0.50000500000E+01  0.50000000000E+01 0.  1.
</event>
<event>
 4    1  0.4944208E-021  0.5000050E+01  0.7818608E-02  0.2136455E+00
        -11   -1    0    0    0    0  0.00000000000E+00  0.00000000000E+00  0.50000499739E+01  0.50000500000E+01  0.51100000000E-03 0. -1.
         11   -1    0    0    0    0 -0.00000000000E+00 -0.00000000000E+00 -0.50000499739E+01  0.50000500000E+01  0.51100000000E-03 0.  1.
         50    1    1    2    0    0 -0.12056472942E-01  0.73493340506E-02 -0.17338721095E-01  0.50000500000E+01  0.50000000000E+01 0.  0.
         50    1    1    2    0    0  0.12056472942E-01 -0.73493340506E-02  0.17338721095E-01  0.50000500000E+01  0.50000000000E+01 0.  0.
</event>
<event>
 4    1  0.4944208E-021  0.5000050E+01  0.7818608E-02  0.2136455E+00
        -11   -1    0    0    0    0  0.00000000000E+00  0.00000000000E+00  0.50000499739E+01  0.50000500000E+01  0.51100000000E-03 0. -1.
         11   -1    0    0    0    0 -0.00000000000E+00 -0.00000000000E+00 -0.50000499739E+01  0.50000500000E+01  0.51100000000E-03 0.  1.
         50    1    1    2    0    0  0.10540970610E-01  0.14110041064E-02 -0.19669761209E-01  0.50000500000E+01  0.50000000000E+01 0.  0.
         50    1    1    2    0    0 -0.10540970610E-01 -0.14110041064E-02  0.19669761209E-01  0.50000500000E+01  0.50000000000E+01 0. -1.
</event>
<event>
 4    1  0.4944208E-021  0.5000050E+01  0.7818608E-02  0.2136455E+00
        -11   -1    0    0    0    0  0.00000000000E+00  0.00000000000E+00  0.50000499739E+01  0.50000500000E+01  0.51100000000E-03 0. -1.
         11   -1    0    0    0    0 -0.00000000000E+00 -0.00000000000E+00 -0.50000499739E+01  0.50000500000E+01  0.51100000000E-03 0.  1.
         50    1    1    2    0    0  0.11336405854E-01  0.66948735797E-02 -0.18073933442E-01  0.50000500000E+01  0.50000000000E+01 0.  0.
         50    1    1    2    0    0 -0.11336405854E-01 -0.66948735797E-02  0.18073933442E-01  0.50000500000E+01  0.50000000000E+01 0.  0.
</event>
<event>
 4    1  0.4944208E-021  0.5000050E+01  0.7818608E-02  0.2136455E+00
        -11   -1    0    0    0    0  0.00000000000E+00  0.00000000000E+00  0.50000499739E+01  0.50000500000E+01  0.51100000000E-03 0. -1.
         11   -1    0    0    0    0 -0.00000000000E+00 -0.00000000000E+00 -0.50000499739E+01  0.50000500000E+01  0.51100000000E-03 0.  1.
         50    1    1    2    0    0 -0.21020281119E-01  0.13146128791E-02 -0.75114628824E-02  0.50000500000E+01  0.50000000000E+01 0.  1.
         50    1    1    2    0    0  0.21020281119E-01 -0.13146128791E-02  0.75114628824E-02  0.50000500000E+01  0.50000000000E+01 0. -1.
</event>
<event>
 4    1  0.4944208E-021  0.5000050E+01  0.7818608E-02  0.2136455E+00
        -11   -1    0    0    0    0  0.00000000000E+00  0.00000000000E+00  0.50000499739E+01  0.50000500000E+01  0.51100000000E-03 0. -1.
         11   -1    0    0    0    0 -0.00000000000E+00 -0.00000000000E+00 -0.50000499739E+01  0.50000500000E+01  0.51100000000E-03 0.  1.
         50    1    1    2    0    0  0.20435627253E-01  0.39085744467E-02 -0.81921111177E-02  0.50000500000E+01  0.50000000000E+01 0. -1.
         50    1    1    2    0    0 -0.20435627253E-01 -0.39085744467E-02  0.81921111177E-02  0.50000500000E+01  0.50000000000E+01 0.  0.
</event>
<event>
 4    1  0.4944208E-021  0.5000050E+01  0.7818608E-02  0.2136455E+00
        -11   -1    0    0    0    0  0.00000000000E+00  0.00000000000E+00  0.50000499739E+01  0.50000500000E+01  0.51100000000E-03 0.  1.
         11   -1    0    0    0    0 -0.00000000000E+00 -0.00000000000E+00 -0.50000499739E+01  0.50000500000E+01  0.51100000000E-03 0. -1.
         50    1    1    2    0    0  0.86575844093E-02 -0.16635374387E-01 -0.12178384589E-01  0.50000500000E+01  0.50000000000E+01 0. -1.
         50    1    1    2    0    0 -0.86575844093E-02  0.16635374387E-01  0.12178384589E-01  0.50000500000E+01  0.50000000000E+01 0.  1.
</event>
<event>
 4    1  0.4944208E-021  0.5000050E+01  0.7818608E-02  0.2136455E+00
        -11   -1    0    0    0    0  0.00000000000E+00  0.00000000000E+00  0.50000499739E+01  0.50000500000E+01  0.51100000000E-03 0.  1.
         11   -1    0    0    0    0 -0.00000000000E+00 -0.00000000000E+00 -0.50000499739E+01  0.50000500000E+01  0.51100000000E-03 0. -1.
         50    1    1    2    0    0  0.61150809655E-02  0.15420943706E-01  0.14993424559E-01  0.50000500000E+01  0.50000000000E+01 0.  1.
         50    1    1    2    0    0 -0.61150809655E-02 -0.15420943706E-01 -0.14993424559E-01  0.50000500000E+01  0.50000000000E+01 0. -1.
</event>
<event>
 4    1  0.4944208E-021  0.5000050E+01  0.7818608E-02  0.2136455E+00
        -11   -1    0    0    0    0  0.00000000000E+00  0.00000000000E+00  0.50000499739E+01  0.50000500000E+01  0.51100000000E-03 0.  1.
         11   -1    0    0    0    0 -0.00000000000E+00 -0.00000000000E+00 -0.50000499739E+01  0.50000500000E+01  0.51100000000E-03 0. -1.
         50    1    1    2    0    0  0.15163090296E-01 -0.74171162108E-02 -0.14665250757E-01  0.50000500000E+01  0.50000000000E+01 0. -1.
         50    1    1    2    0    0 -0.15163090296E-01  0.74171162108E-02  0.14665250757E-01  0.50000500000E+01  0.50000000000E+01 0.  1.
</event>
<event>
 4    1  0.4944208E-021  0.5000050E+01  0.7818608E-02  0.2136455E+00
        -11   -1    0    0    0    0  0.00000000000E+00  0.00000000000E+00  0.50000499739E+01  0.50000500000E+01  0.51100000000E-03 0. -1.
         11   -1    0    0    0    0 -0.00000000000E+00 -0.00000000000E+00 -0.50000499739E+01  0.50000500000E+01  0.51100000000E-03 0.  1.
         50    1    1    2    0    0 -0.10757401646E-01  0.17943899437E-01 -0.78928627765E-02  0.50000500000E+01  0.50000000000E+01 0.  1.
         50    1    1    2    0    0  0.10757401646E-01 -0.17943899437E-01  0.78928627765E-02  0.50000500000E+01  0.50000000000E+01 0. -1.
</event>
<event>
 4    1  0.4944208E-021  0.5000050E+01  0.7818608E-02  0.2136455E+00
        -11   -1    0    0    0    0  0.00000000000E+00  0.00000000000E+00  0.50000499739E+01  0.50000500000E+01  0.51100000000E-03 0. -1.
         11   -1    0    0    0    0 -0.00000000000E+00 -0.00000000000E+00 -0.50000499739E+01  0.50000500000E+01  0.51100000000E-03 0.  1.
         50    1    1    2    0    0 -0.10328840745E-01  0.11651522022E-01  0.16048662979E-01  0.50000500000E+01  0.50000000000E+01 0.  0.
         50    1    1    2    0    0  0.10328840745E-01 -0.11651522022E-01 -0.16048662979E-01  0.50000500000E+01  0.50000000000E+01 0.  1.
</event>
<event>
 4    1  0.4944208E-021  0.5000050E+01  0.7818608E-02  0.2136455E+00
        -11   -1    0    0    0    0  0.00000000000E+00  0.00000000000E+00  0.50000499739E+01  0.50000500000E+01  0.51100000000E-03 0.  1.
         11   -1    0    0    0    0 -0.00000000000E+00 -0.00000000000E+00 -0.50000499739E+01  0.50000500000E+01  0.51100000000E-03 0. -1.
         50    1    1    2    0    0  0.65924168960E-02  0.51508861951E-02  0.20736704436E-01  0.50000500000E+01  0.50000000000E+01 0.  0.
         50    1    1    2    0    0 -0.65924168960E-02 -0.51508861951E-02 -0.20736704436E-01  0.50000500000E+01  0.50000000000E+01 0. -1.
</event>
<event>
 4    1  0.4944208E-021  0.5000050E+01  0.7818608E-02  0.2136455E+00
        -11   -1    0    0    0    0  0.00000000000E+00  0.00000000000E+00  0.50000499739E+01  0.50000500000E+01  0.51100000000E-03 0. -1.
         11   -1    0    0    0    0 -0.00000000000E+00 -0.00000000000E+00 -0.50000499739E+01  0.50000500000E+01  0.51100000000E-03 0.  1.
         50    1    1    2    0    0  0.36383523886E-02  0.22038167486E-01  0.10411847929E-02  0.50000500000E+01  0.50000000000E+01 0.  1.
         50    1    1    2    0    0 -0.36383523886E-02 -0.22038167486E-01 -0.10411847929E-02  0.50000500000E+01  0.50000000000E+01 0. -1.
</event>
<event>
 4    1  0.4944208E-021  0.5000050E+01  0.7818608E-02  0.2136455E+00
        -11   -1    0    0    0    0  0.00000000000E+00  0.00000000000E+00  0.50000499739E+01  0.50000500000E+01  0.51100000000E-03 0.  1.
         11   -1    0    0    0    0 -0.00000000000E+00 -0.00000000000E+00 -0.50000499739E+01  0.50000500000E+01  0.51100000000E-03 0. -1.
         50    1    1    2    0    0 -0.98960415858E-03 -0.14437750819E-01 -0.17046246945E-01  0.50000500000E+01  0.50000000000E+01 0.  0.
         50    1    1    2    0    0  0.98960415858E-03  0.14437750819E-01  0.17046246945E-01  0.50000500000E+01  0.50000000000E+01 0.  0.
</event>
<event>
 4    1  0.4944208E-021  0.5000050E+01  0.7818608E-02  0.2136455E+00
        -11   -1    0    0    0    0  0.00000000000E+00  0.00000000000E+00  0.50000499739E+01  0.50000500000E+01  0.51100000000E-03 0. -1.
         11   -1    0    0    0    0 -0.00000000000E+00 -0.00000000000E+00 -0.50000499739E+01  0.50000500000E+01  0.51100000000E-03 0.  1.
         50    1    1    2    0    0  0.14530149426E-01  0.14623396904E-01 -0.86621891380E-02  0.50000500000E+01  0.50000000000E+01 0.  0.
         50    1    1    2    0    0 -0.14530149426E-01 -0.14623396904E-01  0.86621891380E-02  0.50000500000E+01  0.50000000000E+01 0.  1.
</event>
<event>
 4    1  0.4944208E-021  0.5000050E+01  0.7818608E-02  0.2136455E+00
        -11   -1    0    0    0    0  0.00000000000E+00  0.00000000000E+00  0.50000499739E+01  0.50000500000E+01  0.51100000000E-03 0. -1.
         11   -1    0    0    0    0 -0.00000000000E+00 -0.00000000000E+00 -0.50000499739E+01  0.50000500000E+01  0.51100000000E-03 0.  1.
         50    1    1    2    0    0  0.78493158702E-02 -0.17714307626E-01 -0.11162170295E-01  0.50000500000E+01  0.50000000000E+01 0. -1.
         50    1    1    2    0    0 -0.78493158702E-02  0.17714307626E-01  0.11162170295E-01  0.50000500000E+01  0.50000000000E+01 0. -1.
</event>
<event>
 4    1  0.4944208E-021  0.5000050E+01  0.7818608E-02  0.2136455E+00
        -11   -1    0    0    0    0  0.00000000000E+00  0.00000000000E+00  0.50000499739E+01  0.50000500000E+01  0.51100000000E-03 0. -1.
         11   -1    0    0    0    0 -0.00000000000E+00 -0.00000000000E+00 -0.50000499739E+01  0.50000500000E+01  0.51100000000E-03 0.  1.
         50    1    1    2    0    0 -0.73023741565E-02  0.21053667879E-01  0.18495676611E-02  0.50000500000E+01  0.50000000000E+01 0. -1.
         50    1    1    2    0    0  0.73023741565E-02 -0.21053667879E-01 -0.18495676611E-02  0.50000500000E+01  0.50000000000E+01 0.  0.
</event>
<event>
 4    1  0.4944208E-021  0.5000050E+01  0.7818608E-02  0.2136455E+00
        -11   -1    0    0    0    0  0.00000000000E+00  0.00000000000E+00  0.50000499739E+01  0.50000500000E+01  0.51100000000E-03 0.  1.
         11   -1    0    0    0    0 -0.00000000000E+00 -0.00000000000E+00 -0.50000499739E+01  0.50000500000E+01  0.51100000000E-03 0. -1.
         50    1    1    2    0    0  0.11142241491E-01  0.14990149268E-01 -0.12294241720E-01  0.50000500000E+01  0.50000000000E+01 0. -1.
         50    1    1    2    0    0 -0.11142241491E-01 -0.14990149268E-01  0.12294241720E-01  0.50000500000E+01  0.50000000000E+01 0.  1.
</event>
<event>
 4    1  0.4944208E-021  0.5000050E+01  0.7818608E-02  0.2136455E+00
        -11   -1    0    0    0    0  0.00000000000E+00  0.00000000000E+00  0.50000499739E+01  0.50000500000E+01  0.51100000000E-03 0. -1.
         11   -1    0    0    0    0 -0.00000000000E+00 -0.00000000000E+00 -0.50000499739E+01  0.50000500000E+01  0.51100000000E-03 0.  1.
         50    1    1    2    0    0  0.10226568996E-01 -0.19813074999E-01  0.16916990422E-02  0.50000500000E+01  0.50000000000E+01 0.  1.
         50    1    1    2    0    0 -0.10226568996E-01  0.19813074999E-01 -0.16916990422E-02  0.50000500000E+01  0.50000000000E+01 0.  0.
</event>
<event>
 4    1  0.4944208E-021  0.5000050E+01  0.7818608E-02  0.2136455E+00
        -11   -1    0    0    0    0  0.00000000000E+00  0.00000000000E+00  0.50000499739E+01  0.50000500000E+01  0.51100000000E-03 0.  1.
         11   -1    0    0    0    0 -0.00000000000E+00 -0.00000000000E+00 -0.50000499739E+01  0.50000500000E+01  0.51100000000E-03 0. -1.
         50    1    1    2    0    0 -0.21907777318E-01 -0.20218915309E-02 -0.39954658846E-02  0.50000500000E+01  0.50000000000E+01 0. -1.
         50    1    1    2    0    0  0.21907777318E-01  0.20218915309E-02  0.39954658846E-02  0.50000500000E+01  0.50000000000E+01 0.  1.
</event>
<event>
 4    1  0.4944208E-021  0.5000050E+01  0.7818608E-02  0.2136455E+00
        -11   -1    0    0    0    0  0.00000000000E+00  0.00000000000E+00  0.50000499739E+01  0.50000500000E+01  0.51100000000E-03 0. -1.
         11   -1    0    0    0    0 -0.00000000000E+00 -0.00000000000E+00 -0.50000499739E+01  0.50000500000E+01  0.51100000000E-03 0.  1.
         50    1    1    2    0    0 -0.62035872618E-02  0.20895898454E-01  0.49879287148E-02  0.50000500000E+01  0.50000000000E+01 0. -1.
         50    1    1    2    0    0  0.62035872618E-02 -0.20895898454E-01 -0.49879287148E-02  0.50000500000E+01  0.50000000000E+01 0.  0.
</event>
<event>
 4    1  0.4944208E-021  0.5000050E+01  0.7818608E-02  0.2136455E+00
        -11   -1    0    0    0    0  0.00000000000E+00  0.00000000000E+00  0.50000499739E+01  0.50000500000E+01  0.51100000000E-03 0. -1.
         11   -1    0    0    0    0 -0.00000000000E+00 -0.00000000000E+00 -0.50000499739E+01  0.50000500000E+01  0.51100000000E-03 0.  1.
         50    1    1    2    0    0 -0.74966883816E-02  0.66021834990E-02  0.20005332698E-01  0.50000500000E+01  0.50000000000E+01 0.  0.
         50    1    1    2    0    0  0.74966883816E-02 -0.66021834990E-02 -0.20005332698E-01  0.50000500000E+01  0.50000000000E+01 0.  1.
</event>
<event>
 4    1  0.4944208E-021  0.5000050E+01  0.7818608E-02  0.2136455E+00
        -11   -1    0    0    0    0  0.00000000000E+00  0.00000000000E+00  0.50000499739E+01  0.50000500000E+01  0.51100000000E-03 0. -1.
         11   -1    0    0    0    0 -0.00000000000E+00 -0.00000000000E+00 -0.50000499739E+01  0.50000500000E+01  0.51100000000E-03 0.  1.
         50    1    1    2    0    0  0.18250561952E-01 -0.10018565588E-01 -0.81576854539E-02  0.50000500000E+01  0.50000000000E+01 0. -1.
         50    1    1    2    0    0 -0.18250561952E-01  0.10018565588E-01  0.81576854539E-02  0.50000500000E+01  0.50000000000E+01 0.  0.
</event>
<event>
 4    1  0.4944208E-021  0.5000050E+01  0.7818608E-02  0.2136455E+00
        -11   -1    0    0    0    0  0.00000000000E+00  0.00000000000E+00  0.50000499739E+01  0.50000500000E+01  0.51100000000E-03 0.  1.
         11   -1    0    0    0    0 -0.00000000000E+00 -0.00000000000E+00 -0.50000499739E+01  0.50000500000E+01  0.51100000000E-03 0. -1.
         50    1    1    2    0    0  0.13414601824E-01  0.15971854569E-01 -0.80592071267E-02  0.50000500000E+01  0.50000000000E+01 0.  0.
         50    1    1    2    0    0 -0.13414601824E-01 -0.15971854569E-01  0.80592071267E-02  0.50000500000E+01  0.50000000000E+01 0. -1.
</event>
<event>
 4    1  0.4944208E-021  0.5000050E+01  0.7818608E-02  0.2136455E+00
        -11   -1    0    0    0    0  0.00000000000E+00  0.00000000000E+00  0.50000499739E+01  0.50000500000E+01  0.51100000000E-03 0.  1.
         11   -1    0    0    0    0 -0.00000000000E+00 -0.00000000000E+00 -0.50000499739E+01  0.50000500000E+01  0.51100000000E-03 0. -1.
         50    1    1    2    0    0 -0.96566898995E-02  0.85677257720E-02  0.18257735765E-01  0.50000500000E+01  0.50000000000E+01 0.  0.
         50    1    1    2    0    0  0.96566898995E-02 -0.85677257720E-02 -0.18257735765E-01  0.50000500000E+01  0.50000000000E+01 0.  0.
</event>
<event>
 4    1  0.4944208E-021  0.5000050E+01  0.7818608E-02  0.2136455E+00
        -11   -1    0    0    0    0  0.00000000000E+00  0.00000000000E+00  0.50000499739E+01  0.50000500000E+01  0.51100000000E-03 0.  1.
         11   -1    0    0    0    0 -0.00000000000E+00 -0.00000000000E+00 -0.50000499739E+01  0.50000500000E+01  0.51100000000E-03 0. -1.
         50    1    1    2    0    0  0.60681475142E-02 -0.19017843042E-01  0.10074806786E-01  0.50000500000E+01  0.50000000000E+01 0.  1.
         50    1    1    2    0    0 -0.60681475142E-02  0.19017843042E-01 -0.10074806786E-01  0.50000500000E+01  0.50000000000E+01 0. -1.
</event>
<event>
 4    1  0.4944208E-021  0.5000050E+01  0.7818608E-02  0.2136455E+00
        -11   -1    0    0    0    0  0.00000000000E+00  0.00000000000E+00  0.50000499739E+01  0.50000500000E+01  0.51100000000E-03 0. -1.
         11   -1    0    0    0    0 -0.00000000000E+00 -0.00000000000E+00 -0.50000499739E+01  0.50000500000E+01  0.51100000000E-03 0.  1.
         50    1    1    2    0    0  0.19551291612E-01 -0.79666851420E-02  0.73675928338E-02  0.50000500000E+01  0.50000000000E+01 0. -1.
         50    1    1    2    0    0 -0.19551291612E-01  0.79666851420E-02 -0.73675928338E-02  0.50000500000E+01  0.50000000000E+01 0.  1.
</event>
<event>
 4    1  0.4944208E-021  0.5000050E+01  0.7818608E-02  0.2136455E+00
        -11   -1    0    0    0    0  0.00000000000E+00  0.00000000000E+00  0.50000499739E+01  0.50000500000E+01  0.51100000000E-03 0. -1.
         11   -1    0    0    0    0 -0.00000000000E+00 -0.00000000000E+00 -0.50000499739E+01  0.50000500000E+01  0.51100000000E-03 0.  1.
         50    1    1    2    0    0  0.20634014235E-01 -0.51843280364E-02 -0.68820563329E-02  0.50000500000E+01  0.50000000000E+01 0. -1.
         50    1    1    2    0    0 -0.20634014235E-01  0.51843280364E-02  0.68820563329E-02  0.50000500000E+01  0.50000000000E+01 0.  0.
</event>
<event>
 4    1  0.4944208E-021  0.5000050E+01  0.7818608E-02  0.2136455E+00
        -11   -1    0    0    0    0  0.00000000000E+00  0.00000000000E+00  0.50000499739E+01  0.50000500000E+01  0.51100000000E-03 0.  1.
         11   -1    0    0    0    0 -0.00000000000E+00 -0.00000000000E+00 -0.50000499739E+01  0.50000500000E+01  0.51100000000E-03 0. -1.
         50    1    1    2    0    0  0.16841487034E-01  0.12094119364E-01  0.83725200088E-02  0.50000500000E+01  0.50000000000E+01 0.  1.
         50    1    1    2    0    0 -0.16841487034E-01 -0.12094119364E-01 -0.83725200088E-02  0.50000500000E+01  0.50000000000E+01 0. -1.
</event>
<event>
 4    1  0.4944208E-021  0.5000050E+01  0.7818608E-02  0.2136455E+00
        -11   -1    0    0    0    0  0.00000000000E+00  0.00000000000E+00  0.50000499739E+01  0.50000500000E+01  0.51100000000E-03 0.  1.
         11   -1    0    0    0    0 -0.00000000000E+00 -0.00000000000E+00 -0.50000499739E+01  0.50000500000E+01  0.51100000000E-03 0. -1.
         50    1    1    2    0    0  0.18637563521E-01 -0.40613566288E-02 -0.11668295006E-01  0.50000500000E+01  0.50000000000E+01 0. -1.
         50    1    1    2    0    0 -0.18637563521E-01  0.40613566288E-02  0.11668295006E-01  0.50000500000E+01  0.50000000000E+01 0.  1.
</event>
<event>
 4    1  0.4944208E-021  0.5000050E+01  0.7818608E-02  0.2136455E+00
        -11   -1    0    0    0    0  0.00000000000E+00  0.00000000000E+00  0.50000499739E+01  0.50000500000E+01  0.51100000000E-03 0.  1.
         11   -1    0    0    0    0 -0.00000000000E+00 -0.00000000000E+00 -0.50000499739E+01  0.50000500000E+01  0.51100000000E-03 0. -1.
         50    1    1    2    0    0  0.16660115630E-01  0.56219323401E-02  0.13814373817E-01  0.50000500000E+01  0.50000000000E+01 0.  0.
         50    1    1    2    0    0 -0.16660115630E-01 -0.56219323401E-02 -0.13814373817E-01  0.50000500000E+01  0.50000000000E+01 0.  1.
</event>
<event>
 4    1  0.4944208E-021  0.5000050E+01  0.7818608E-02  0.2136455E+00
        -11   -1    0    0    0    0  0.00000000000E+00  0.00000000000E+00  0.50000499739E+01  0.50000500000E+01  0.51100000000E-03 0. -1.
         11   -1    0    0    0    0 -0.00000000000E+00 -0.00000000000E+00 -0.50000499739E+01  0.50000500000E+01  0.51100000000E-03 0.  1.
         50    1    1    2    0    0  0.17702509396E-01 -0.56611654225E-02 -0.12432814128E-01  0.50000500000E+01  0.50000000000E+01 0.  1.
         50    1    1    2    0    0 -0.17702509396E-01  0.56611654225E-02  0.12432814128E-01  0.50000500000E+01  0.50000000000E+01 0. -1.
</event>
<event>
 4    1  0.4944208E-021  0.5000050E+01  0.7818608E-02  0.2136455E+00
        -11   -1    0    0    0    0  0.00000000000E+00  0.00000000000E+00  0.50000499739E+01  0.50000500000E+01  0.51100000000E-03 0. -1.
         11   -1    0    0    0    0 -0.00000000000E+00 -0.00000000000E+00 -0.50000499739E+01  0.50000500000E+01  0.51100000000E-03 0.  1.
         50    1    1    2    0    0  0.19026414989E-01 -0.99110472715E-02  0.63062805723E-02  0.50000500000E+01  0.50000000000E+01 0.  1.
         50    1    1    2    0    0 -0.19026414989E-01  0.99110472715E-02 -0.63062805723E-02  0.50000500000E+01  0.50000000000E+01 0. -1.
</event>
<event>
 4    1  0.4944208E-021  0.5000050E+01  0.7818608E-02  0.2136455E+00
        -11   -1    0    0    0    0  0.00000000000E+00  0.00000000000E+00  0.50000499739E+01  0.50000500000E+01  0.51100000000E-03 0.  1.
         11   -1    0    0    0    0 -0.00000000000E+00 -0.00000000000E+00 -0.50000499739E+01  0.50000500000E+01  0.51100000000E-03 0. -1.
         50    1    1    2    0    0  0.67013307235E-02 -0.21261363485E-01 -0.17461641654E-02  0.50000500000E+01  0.50000000000E+01 0.  0.
         50    1    1    2    0    0 -0.67013307235E-02  0.21261363485E-01  0.17461641654E-02  0.50000500000E+01  0.50000000000E+01 0. -1.
</event>
<event>
 4    1  0.4944208E-021  0.5000050E+01  0.7818608E-02  0.2136455E+00
        -11   -1    0    0    0    0  0.00000000000E+00  0.00000000000E+00  0.50000499739E+01  0.50000500000E+01  0.51100000000E-03 0. -1.
         11   -1    0    0    0    0 -0.00000000000E+00 -0.00000000000E+00 -0.50000499739E+01  0.50000500000E+01  0.51100000000E-03 0.  1.
         50    1    1    2    0    0  0.13710806930E-01 -0.11424597659E-01  0.13472002140E-01  0.50000500000E+01  0.50000000000E+01 0.  1.
         50    1    1    2    0    0 -0.13710806930E-01  0.11424597659E-01 -0.13472002140E-01  0.50000500000E+01  0.50000000000E+01 0. -1.
</event>
<event>
 4    1  0.4944208E-021  0.5000050E+01  0.7818608E-02  0.2136455E+00
        -11   -1    0    0    0    0  0.00000000000E+00  0.00000000000E+00  0.50000499739E+01  0.50000500000E+01  0.51100000000E-03 0. -1.
         11   -1    0    0    0    0 -0.00000000000E+00 -0.00000000000E+00 -0.50000499739E+01  0.50000500000E+01  0.51100000000E-03 0.  1.
         50    1    1    2    0    0 -0.18093038328E-01  0.64162503263E-02 -0.11466306982E-01  0.50000500000E+01  0.50000000000E+01 0.  1.
         50    1    1    2    0    0  0.18093038328E-01 -0.64162503263E-02  0.11466306982E-01  0.50000500000E+01  0.50000000000E+01 0. -1.
</event>
<event>
 4    1  0.4944208E-021  0.5000050E+01  0.7818608E-02  0.2136455E+00
        -11   -1    0    0    0    0  0.00000000000E+00  0.00000000000E+00  0.50000499739E+01  0.50000500000E+01  0.51100000000E-03 0.  1.
         11   -1    0    0    0    0 -0.00000000000E+00 -0.00000000000E+00 -0.50000499739E+01  0.50000500000E+01  0.51100000000E-03 0. -1.
         50    1    1    2    0    0 -0.21494840098E-01 -0.45241125027E-02  0.41841074598E-02  0.50000500000E+01  0.50000000000E+01 0.  1.
         50    1    1    2    0    0  0.21494840098E-01  0.45241125027E-02 -0.41841074598E-02  0.50000500000E+01  0.50000000000E+01 0.  0.
</event>
<event>
 4    1  0.4944208E-021  0.5000050E+01  0.7818608E-02  0.2136455E+00
        -11   -1    0    0    0    0  0.00000000000E+00  0.00000000000E+00  0.50000499739E+01  0.50000500000E+01  0.51100000000E-03 0.  1.
         11   -1    0    0    0    0 -0.00000000000E+00 -0.00000000000E+00 -0.50000499739E+01  0.50000500000E+01  0.51100000000E-03 0. -1.
         50    1    1    2    0    0 -0.21285131638E-01  0.31365111121E-03 -0.68445083201E-02  0.50000500000E+01  0.50000000000E+01 0. -1.
         50    1    1    2    0    0  0.21285131638E-01 -0.31365111121E-03  0.68445083201E-02  0.50000500000E+01  0.50000000000E+01 0.  1.
</event>
<event>
 4    1  0.4944208E-021  0.5000050E+01  0.7818608E-02  0.2136455E+00
        -11   -1    0    0    0    0  0.00000000000E+00  0.00000000000E+00  0.50000499739E+01  0.50000500000E+01  0.51100000000E-03 0. -1.
         11   -1    0    0    0    0 -0.00000000000E+00 -0.00000000000E+00 -0.50000499739E+01  0.50000500000E+01  0.51100000000E-03 0.  1.
         50    1    1    2    0    0 -0.10414346959E-01  0.19689109074E-01  0.19704977249E-02  0.50000500000E+01  0.50000000000E+01 0. -1.
         50    1    1    2    0    0  0.10414346959E-01 -0.19689109074E-01 -0.19704977249E-02  0.50000500000E+01  0.50000000000E+01 0.  1.
</event>
<event>
 4    1  0.4944208E-021  0.5000050E+01  0.7818608E-02  0.2136455E+00
        -11   -1    0    0    0    0  0.00000000000E+00  0.00000000000E+00  0.50000499739E+01  0.50000500000E+01  0.51100000000E-03 0. -1.
         11   -1    0    0    0    0 -0.00000000000E+00 -0.00000000000E+00 -0.50000499739E+01  0.50000500000E+01  0.51100000000E-03 0.  1.
         50    1    1    2    0    0  0.16651941503E-01 -0.13490277566E-01  0.63818300957E-02  0.50000500000E+01  0.50000000000E+01 0.  0.
         50    1    1    2    0    0 -0.16651941503E-01  0.13490277566E-01 -0.63818300957E-02  0.50000500000E+01  0.50000000000E+01 0.  0.
</event>
<event>
 4    1  0.4944208E-021  0.5000050E+01  0.7818608E-02  0.2136455E+00
        -11   -1    0    0    0    0  0.00000000000E+00  0.00000000000E+00  0.50000499739E+01  0.50000500000E+01  0.51100000000E-03 0.  1.
         11   -1    0    0    0    0 -0.00000000000E+00 -0.00000000000E+00 -0.50000499739E+01  0.50000500000E+01  0.51100000000E-03 0. -1.
         50    1    1    2    0    0 -0.16842144045E-01 -0.85654293001E-02 -0.11957345227E-01  0.50000500000E+01  0.50000000000E+01 0. -1.
         50    1    1    2    0    0  0.16842144045E-01  0.85654293001E-02  0.11957345227E-01  0.50000500000E+01  0.50000000000E+01 0.  1.
</event>
<event>
 4    1  0.4944208E-021  0.5000050E+01  0.7818608E-02  0.2136455E+00
        -11   -1    0    0    0    0  0.00000000000E+00  0.00000000000E+00  0.50000499739E+01  0.50000500000E+01  0.51100000000E-03 0.  1.
         11   -1    0    0    0    0 -0.00000000000E+00 -0.00000000000E+00 -0.50000499739E+01  0.50000500000E+01  0.51100000000E-03 0. -1.
         50    1    1    2    0    0  0.10428134965E-01  0.17314197991E-01  0.95642589415E-02  0.50000500000E+01  0.50000000000E+01 0.  1.
         50    1    1    2    0    0 -0.10428134965E-01 -0.17314197991E-01 -0.95642589415E-02  0.50000500000E+01  0.50000000000E+01 0. -1.
</event>
<event>
 4    1  0.4944208E-021  0.5000050E+01  0.7818608E-02  0.2136455E+00
        -11   -1    0    0    0    0  0.00000000000E+00  0.00000000000E+00  0.50000499739E+01  0.50000500000E+01  0.51100000000E-03 0.  1.
         11   -1    0    0    0    0 -0.00000000000E+00 -0.00000000000E+00 -0.50000499739E+01  0.50000500000E+01  0.51100000000E-03 0. -1.
         50    1    1    2    0    0  0.58308169734E-02  0.38396749446E-02  0.21242903986E-01  0.50000500000E+01  0.50000000000E+01 0.  0.
         50    1    1    2    0    0 -0.58308169734E-02 -0.38396749446E-02 -0.21242903986E-01  0.50000500000E+01  0.50000000000E+01 0. -1.
</event>
<event>
 4    1  0.4944208E-021  0.5000050E+01  0.7818608E-02  0.2136455E+00
        -11   -1    0    0    0    0  0.00000000000E+00  0.00000000000E+00  0.50000499739E+01  0.50000500000E+01  0.51100000000E-03 0. -1.
         11   -1    0    0    0    0 -0.00000000000E+00 -0.00000000000E+00 -0.50000499739E+01  0.50000500000E+01  0.51100000000E-03 0.  1.
         50    1    1    2    0    0 -0.15608766631E-01  0.15614970685E-01  0.35414114097E-02  0.50000500000E+01  0.50000000000E+01 0.  0.
         50    1    1    2    0    0  0.15608766631E-01 -0.15614970685E-01 -0.35414114097E-02  0.50000500000E+01  0.50000000000E+01 0.  1.
</event>
<event>
 4    1  0.4944208E-021  0.5000050E+01  0.7818608E-02  0.2136455E+00
        -11   -1    0    0    0    0  0.00000000000E+00  0.00000000000E+00  0.50000499739E+01  0.50000500000E+01  0.51100000000E-03 0. -1.
         11   -1    0    0    0    0 -0.00000000000E+00 -0.00000000000E+00 -0.50000499739E+01  0.50000500000E+01  0.51100000000E-03 0.  1.
         50    1    1    2    0    0  0.20599781635E-01  0.15965417459E-02  0.85500029860E-02  0.50000500000E+01  0.50000000000E+01 0.  0.
         50    1    1    2    0    0 -0.20599781635E-01 -0.15965417459E-02 -0.85500029860E-02  0.50000500000E+01  0.50000000000E+01 0. -1.
</event>
<event>
 4    1  0.4944208E-021  0.5000050E+01  0.7818608E-02  0.2136455E+00
        -11   -1    0    0    0    0  0.00000000000E+00  0.00000000000E+00  0.50000499739E+01  0.50000500000E+01  0.51100000000E-03 0.  1.
         11   -1    0    0    0    0 -0.00000000000E+00 -0.00000000000E+00 -0.50000499739E+01  0.50000500000E+01  0.51100000000E-03 0. -1.
         50    1    1    2    0    0 -0.28256123594E-02 -0.15086002050E-01  0.16261333185E-01  0.50000500000E+01  0.50000000000E+01 0.  0.
         50    1    1    2    0    0  0.28256123594E-02  0.15086002050E-01 -0.16261333185E-01  0.50000500000E+01  0.50000000000E+01 0. -1.
</event>
<event>
 4    1  0.4944208E-021  0.5000050E+01  0.7818608E-02  0.2136455E+00
        -11   -1    0    0    0    0  0.00000000000E+00  0.00000000000E+00  0.50000499739E+01  0.50000500000E+01  0.51100000000E-03 0. -1.
         11   -1    0    0    0    0 -0.00000000000E+00 -0.00000000000E+00 -0.50000499739E+01  0.50000500000E+01  0.51100000000E-03 0.  1.
         50    1    1    2    0    0  0.89725717313E-02 -0.19530750411E-01  0.61680827570E-02  0.50000500000E+01  0.50000000000E+01 0.  0.
         50    1    1    2    0    0 -0.89725717313E-02  0.19530750411E-01 -0.61680827570E-02  0.50000500000E+01  0.50000000000E+01 0.  0.
</event>
<event>
 4    1  0.4944208E-021  0.5000050E+01  0.7818608E-02  0.2136455E+00
        -11   -1    0    0    0    0  0.00000000000E+00  0.00000000000E+00  0.50000499739E+01  0.50000500000E+01  0.51100000000E-03 0.  1.
         11   -1    0    0    0    0 -0.00000000000E+00 -0.00000000000E+00 -0.50000499739E+01  0.50000500000E+01  0.51100000000E-03 0. -1.
         50    1    1    2    0    0 -0.27644479407E-02 -0.19894524997E-01  0.98269121671E-02  0.50000500000E+01  0.50000000000E+01 0.  1.
         50    1    1    2    0    0  0.27644479407E-02  0.19894524997E-01 -0.98269121671E-02  0.50000500000E+01  0.50000000000E+01 0. -1.
</event>
<event>
 4    1  0.4944208E-021  0.5000050E+01  0.7818608E-02  0.2136455E+00
        -11   -1    0    0    0    0  0.00000000000E+00  0.00000000000E+00  0.50000499739E+01  0.50000500000E+01  0.51100000000E-03 0.  1.
         11   -1    0    0    0    0 -0.00000000000E+00 -0.00000000000E+00 -0.50000499739E+01  0.50000500000E+01  0.51100000000E-03 0. -1.
         50    1    1    2    0    0  0.41854430009E-02 -0.21275898700E-01  0.54608333988E-02  0.50000500000E+01  0.50000000000E+01 0.  1.
         50    1    1    2    0    0 -0.41854430009E-02  0.21275898700E-01 -0.54608333988E-02  0.50000500000E+01  0.50000000000E+01 0. -1.
</event>
<event>
 4    1  0.4944208E-021  0.5000050E+01  0.7818608E-02  0.2136455E+00
        -11   -1    0    0    0    0  0.00000000000E+00  0.00000000000E+00  0.50000499739E+01  0.50000500000E+01  0.51100000000E-03 0. -1.
         11   -1    0    0    0    0 -0.00000000000E+00 -0.00000000000E+00 -0.50000499739E+01  0.50000500000E+01  0.51100000000E-03 0.  1.
         50    1    1    2    0    0  0.15733677904E-01 -0.72148712201E-02  0.14156253490E-01  0.50000500000E+01  0.50000000000E+01 0. -1.
         50    1    1    2    0    0 -0.15733677904E-01  0.72148712201E-02 -0.14156253490E-01  0.50000500000E+01  0.50000000000E+01 0.  1.
</event>
<event>
 4    1  0.4944208E-021  0.5000050E+01  0.7818608E-02  0.2136455E+00
        -11   -1    0    0    0    0  0.00000000000E+00  0.00000000000E+00  0.50000499739E+01  0.50000500000E+01  0.51100000000E-03 0.  1.
         11   -1    0    0    0    0 -0.00000000000E+00 -0.00000000000E+00 -0.50000499739E+01  0.50000500000E+01  0.51100000000E-03 0. -1.
         50    1    1    2    0    0 -0.11441625613E-01  0.90315584659E-02 -0.16956493004E-01  0.50000500000E+01  0.50000000000E+01 0. -1.
         50    1    1    2    0    0  0.11441625613E-01 -0.90315584659E-02  0.16956493004E-01  0.50000500000E+01  0.50000000000E+01 0.  1.
</event>
<event>
 4    1  0.4944208E-021  0.5000050E+01  0.7818608E-02  0.2136455E+00
        -11   -1    0    0    0    0  0.00000000000E+00  0.00000000000E+00  0.50000499739E+01  0.50000500000E+01  0.51100000000E-03 0.  1.
         11   -1    0    0    0    0 -0.00000000000E+00 -0.00000000000E+00 -0.50000499739E+01  0.50000500000E+01  0.51100000000E-03 0. -1.
         50    1    1    2    0    0 -0.55127323342E-02  0.72544684525E-02 -0.20420209834E-01  0.50000500000E+01  0.50000000000E+01 0.  0.
         50    1    1    2    0    0  0.55127323342E-02 -0.72544684525E-02  0.20420209834E-01  0.50000500000E+01  0.50000000000E+01 0.  0.
</event>
<event>
 4    1  0.4944208E-021  0.5000050E+01  0.7818608E-02  0.2136455E+00
        -11   -1    0    0    0    0  0.00000000000E+00  0.00000000000E+00  0.50000499739E+01  0.50000500000E+01  0.51100000000E-03 0. -1.
         11   -1    0    0    0    0 -0.00000000000E+00 -0.00000000000E+00 -0.50000499739E+01  0.50000500000E+01  0.51100000000E-03 0.  1.
         50    1    1    2    0    0 -0.23772814689E-02 -0.20392037359E-01  0.88609167223E-02  0.50000500000E+01  0.50000000000E+01 0.  0.
         50    1    1    2    0    0  0.23772814689E-02  0.20392037359E-01 -0.88609167223E-02  0.50000500000E+01  0.50000000000E+01 0. -1.
</event>
<event>
 4    1  0.4944208E-021  0.5000050E+01  0.7818608E-02  0.2136455E+00
        -11   -1    0    0    0    0  0.00000000000E+00  0.00000000000E+00  0.50000499739E+01  0.50000500000E+01  0.51100000000E-03 0. -1.
         11   -1    0    0    0    0 -0.00000000000E+00 -0.00000000000E+00 -0.50000499739E+01  0.50000500000E+01  0.51100000000E-03 0.  1.
         50    1    1    2    0    0  0.15252634469E-01 -0.23704828860E-02 -0.16178394625E-01  0.50000500000E+01  0.50000000000E+01 0.  1.
         50    1    1    2    0    0 -0.15252634469E-01  0.23704828860E-02  0.16178394625E-01  0.50000500000E+01  0.50000000000E+01 0.  1.
</event>
<event>
 4    1  0.4944208E-021  0.5000050E+01  0.7818608E-02  0.2136455E+00
        -11   -1    0    0    0    0  0.00000000000E+00  0.00000000000E+00  0.50000499739E+01  0.50000500000E+01  0.51100000000E-03 0. -1.
         11   -1    0    0    0    0 -0.00000000000E+00 -0.00000000000E+00 -0.50000499739E+01  0.50000500000E+01  0.51100000000E-03 0.  1.
         50    1    1    2    0    0  0.92960659516E-02 -0.11070870962E-01 -0.17059351511E-01  0.50000500000E+01  0.50000000000E+01 0.  1.
         50    1    1    2    0    0 -0.92960659516E-02  0.11070870962E-01  0.17059351511E-01  0.50000500000E+01  0.50000000000E+01 0. -1.
</event>
<event>
 4    1  0.4944208E-021  0.5000050E+01  0.7818608E-02  0.2136455E+00
        -11   -1    0    0    0    0  0.00000000000E+00  0.00000000000E+00  0.50000499739E+01  0.50000500000E+01  0.51100000000E-03 0.  1.
         11   -1    0    0    0    0 -0.00000000000E+00 -0.00000000000E+00 -0.50000499739E+01  0.50000500000E+01  0.51100000000E-03 0. -1.
         50    1    1    2    0    0 -0.13617889374E-01  0.10333535949E-01  0.14414354782E-01  0.50000500000E+01  0.50000000000E+01 0.  0.
         50    1    1    2    0    0  0.13617889374E-01 -0.10333535949E-01 -0.14414354782E-01  0.50000500000E+01  0.50000000000E+01 0.  0.
</event>
<event>
 4    1  0.4944208E-021  0.5000050E+01  0.7818608E-02  0.2136455E+00
        -11   -1    0    0    0    0  0.00000000000E+00  0.00000000000E+00  0.50000499739E+01  0.50000500000E+01  0.51100000000E-03 0. -1.
         11   -1    0    0    0    0 -0.00000000000E+00 -0.00000000000E+00 -0.50000499739E+01  0.50000500000E+01  0.51100000000E-03 0.  1.
         50    1    1    2    0    0 -0.43857389489E-02 -0.17258694041E-01  0.13524247627E-01  0.50000500000E+01  0.50000000000E+01 0.  1.
         50    1    1    2    0    0  0.43857389489E-02  0.17258694041E-01 -0.13524247627E-01  0.50000500000E+01  0.50000000000E+01 0. -1.
</event>
<event>
 4    1  0.4944208E-021  0.5000050E+01  0.7818608E-02  0.2136455E+00
        -11   -1    0    0    0    0  0.00000000000E+00  0.00000000000E+00  0.50000499739E+01  0.50000500000E+01  0.51100000000E-03 0. -1.
         11   -1    0    0    0    0 -0.00000000000E+00 -0.00000000000E+00 -0.50000499739E+01  0.50000500000E+01  0.51100000000E-03 0.  1.
         50    1    1    2    0    0 -0.40064537523E-02 -0.12756423827E-01  0.17922736383E-01  0.50000500000E+01  0.50000000000E+01 0. -1.
         50    1    1    2    0    0  0.40064537523E-02  0.12756423827E-01 -0.17922736383E-01  0.50000500000E+01  0.50000000000E+01 0.  0.
</event>
<event>
 4    1  0.4944208E-021  0.5000050E+01  0.7818608E-02  0.2136455E+00
        -11   -1    0    0    0    0  0.00000000000E+00  0.00000000000E+00  0.50000499739E+01  0.50000500000E+01  0.51100000000E-03 0. -1.
         11   -1    0    0    0    0 -0.00000000000E+00 -0.00000000000E+00 -0.50000499739E+01  0.50000500000E+01  0.51100000000E-03 0.  1.
         50    1    1    2    0    0 -0.85160116645E-02  0.20219030395E-01  0.43209785029E-02  0.50000500000E+01  0.50000000000E+01 0. -1.
         50    1    1    2    0    0  0.85160116645E-02 -0.20219030395E-01 -0.43209785029E-02  0.50000500000E+01  0.50000000000E+01 0.  0.
</event>
<event>
 4    1  0.4944208E-021  0.5000050E+01  0.7818608E-02  0.2136455E+00
        -11   -1    0    0    0    0  0.00000000000E+00  0.00000000000E+00  0.50000499739E+01  0.50000500000E+01  0.51100000000E-03 0.  1.
         11   -1    0    0    0    0 -0.00000000000E+00 -0.00000000000E+00 -0.50000499739E+01  0.50000500000E+01  0.51100000000E-03 0. -1.
         50    1    1    2    0    0  0.16610735396E-01  0.84139472343E-02 -0.12381092906E-01  0.50000500000E+01  0.50000000000E+01 0.  0.
         50    1    1    2    0    0 -0.16610735396E-01 -0.84139472343E-02  0.12381092906E-01  0.50000500000E+01  0.50000000000E+01 0. -1.
</event>
<event>
 4    1  0.4944208E-021  0.5000050E+01  0.7818608E-02  0.2136455E+00
        -11   -1    0    0    0    0  0.00000000000E+00  0.00000000000E+00  0.50000499739E+01  0.50000500000E+01  0.51100000000E-03 0. -1.
         11   -1    0    0    0    0 -0.00000000000E+00 -0.00000000000E+00 -0.50000499739E+01  0.50000500000E+01  0.51100000000E-03 0.  1.
         50    1    1    2    0    0 -0.21597326583E-01  0.57676527494E-02  0.54052404463E-03  0.50000500000E+01  0.50000000000E+01 0.  1.
         50    1    1    2    0    0  0.21597326583E-01 -0.57676527494E-02 -0.54052404463E-03  0.50000500000E+01  0.50000000000E+01 0.  0.
</event>
<event>
 4    1  0.4944208E-021  0.5000050E+01  0.7818608E-02  0.2136455E+00
        -11   -1    0    0    0    0  0.00000000000E+00  0.00000000000E+00  0.50000499739E+01  0.50000500000E+01  0.51100000000E-03 0.  1.
         11   -1    0    0    0    0 -0.00000000000E+00 -0.00000000000E+00 -0.50000499739E+01  0.50000500000E+01  0.51100000000E-03 0. -1.
         50    1    1    2    0    0  0.30638837794E-02 -0.17239481301E-01  0.13907386550E-01  0.50000500000E+01  0.50000000000E+01 0.  1.
         50    1    1    2    0    0 -0.30638837794E-02  0.17239481301E-01 -0.13907386550E-01  0.50000500000E+01  0.50000000000E+01 0.  1.
</event>
<event>
 4    1  0.4944208E-021  0.5000050E+01  0.7818608E-02  0.2136455E+00
        -11   -1    0    0    0    0  0.00000000000E+00  0.00000000000E+00  0.50000499739E+01  0.50000500000E+01  0.51100000000E-03 0. -1.
         11   -1    0    0    0    0 -0.00000000000E+00 -0.00000000000E+00 -0.50000499739E+01  0.50000500000E+01  0.51100000000E-03 0.  1.
         50    1    1    2    0    0 -0.20568723975E-01 -0.59073014462E-02  0.64833543518E-02  0.50000500000E+01  0.50000000000E+01 0.  1.
         50    1    1    2    0    0  0.20568723975E-01  0.59073014462E-02 -0.64833543518E-02  0.50000500000E+01  0.50000000000E+01 0.  0.
</event>
<event>
 4    1  0.4944208E-021  0.5000050E+01  0.7818608E-02  0.2136455E+00
        -11   -1    0    0    0    0  0.00000000000E+00  0.00000000000E+00  0.50000499739E+01  0.50000500000E+01  0.51100000000E-03 0.  1.
         11   -1    0    0    0    0 -0.00000000000E+00 -0.00000000000E+00 -0.50000499739E+01  0.50000500000E+01  0.51100000000E-03 0. -1.
         50    1    1    2    0    0 -0.16972002643E-01 -0.37648820354E-02 -0.14063402488E-01  0.50000500000E+01  0.50000000000E+01 0.  0.
         50    1    1    2    0    0  0.16972002643E-01  0.37648820354E-02  0.14063402488E-01  0.50000500000E+01  0.50000000000E+01 0.  0.
</event>
<event>
 4    1  0.4944208E-021  0.5000050E+01  0.7818608E-02  0.2136455E+00
        -11   -1    0    0    0    0  0.00000000000E+00  0.00000000000E+00  0.50000499739E+01  0.50000500000E+01  0.51100000000E-03 0.  1.
         11   -1    0    0    0    0 -0.00000000000E+00 -0.00000000000E+00 -0.50000499739E+01  0.50000500000E+01  0.51100000000E-03 0. -1.
         50    1    1    2    0    0 -0.35136912827E-02 -0.15123584079E-01  0.16091416288E-01  0.50000500000E+01  0.50000000000E+01 0. -1.
         50    1    1    2    0    0  0.35136912827E-02  0.15123584079E-01 -0.16091416288E-01  0.50000500000E+01  0.50000000000E+01 0.  0.
</event>
<event>
 4    1  0.4944208E-021  0.5000050E+01  0.7818608E-02  0.2136455E+00
        -11   -1    0    0    0    0  0.00000000000E+00  0.00000000000E+00  0.50000499739E+01  0.50000500000E+01  0.51100000000E-03 0.  1.
         11   -1    0    0    0    0 -0.00000000000E+00 -0.00000000000E+00 -0.50000499739E+01  0.50000500000E+01  0.51100000000E-03 0. -1.
         50    1    1    2    0    0  0.32829205783E-02 -0.94829908088E-02 -0.19982437734E-01  0.50000500000E+01  0.50000000000E+01 0. -1.
         50    1    1    2    0    0 -0.32829205783E-02  0.94829908088E-02  0.19982437734E-01  0.50000500000E+01  0.50000000000E+01 0.  0.
</event>
<event>
 4    1  0.4944208E-021  0.5000050E+01  0.7818608E-02  0.2136455E+00
        -11   -1    0    0    0    0  0.00000000000E+00  0.00000000000E+00  0.50000499739E+01  0.50000500000E+01  0.51100000000E-03 0. -1.
         11   -1    0    0    0    0 -0.00000000000E+00 -0.00000000000E+00 -0.50000499739E+01  0.50000500000E+01  0.51100000000E-03 0.  1.
         50    1    1    2    0    0  0.17476776935E-01  0.73849293923E-02 -0.11833325224E-01  0.50000500000E+01  0.50000000000E+01 0.  1.
         50    1    1    2    0    0 -0.17476776935E-01 -0.73849293923E-02  0.11833325224E-01  0.50000500000E+01  0.50000000000E+01 0. -1.
</event>
<event>
 4    1  0.4944208E-021  0.5000050E+01  0.7818608E-02  0.2136455E+00
        -11   -1    0    0    0    0  0.00000000000E+00  0.00000000000E+00  0.50000499739E+01  0.50000500000E+01  0.51100000000E-03 0.  1.
         11   -1    0    0    0    0 -0.00000000000E+00 -0.00000000000E+00 -0.50000499739E+01  0.50000500000E+01  0.51100000000E-03 0. -1.
         50    1    1    2    0    0 -0.22951798883E-02 -0.40053123441E-02  0.21879033852E-01  0.50000500000E+01  0.50000000000E+01 0.  0.
         50    1    1    2    0    0  0.22951798883E-02  0.40053123441E-02 -0.21879033852E-01  0.50000500000E+01  0.50000000000E+01 0. -1.
</event>
<event>
 4    1  0.4944208E-021  0.5000050E+01  0.7818608E-02  0.2136455E+00
        -11   -1    0    0    0    0  0.00000000000E+00  0.00000000000E+00  0.50000499739E+01  0.50000500000E+01  0.51100000000E-03 0.  1.
         11   -1    0    0    0    0 -0.00000000000E+00 -0.00000000000E+00 -0.50000499739E+01  0.50000500000E+01  0.51100000000E-03 0. -1.
         50    1    1    2    0    0  0.19827715245E-01  0.30022975413E-02  0.98919370002E-02  0.50000500000E+01  0.50000000000E+01 0.  1.
         50    1    1    2    0    0 -0.19827715245E-01 -0.30022975413E-02 -0.98919370002E-02  0.50000500000E+01  0.50000000000E+01 0. -1.
</event>
<event>
 4    1  0.4944208E-021  0.5000050E+01  0.7818608E-02  0.2136455E+00
        -11   -1    0    0    0    0  0.00000000000E+00  0.00000000000E+00  0.50000499739E+01  0.50000500000E+01  0.51100000000E-03 0. -1.
         11   -1    0    0    0    0 -0.00000000000E+00 -0.00000000000E+00 -0.50000499739E+01  0.50000500000E+01  0.51100000000E-03 0.  1.
         50    1    1    2    0    0  0.13274699139E-01 -0.72407526117E-02 -0.16472897875E-01  0.50000500000E+01  0.50000000000E+01 0.  0.
         50    1    1    2    0    0 -0.13274699139E-01  0.72407526117E-02  0.16472897875E-01  0.50000500000E+01  0.50000000000E+01 0.  1.
</event>
<event>
 4    1  0.4944208E-021  0.5000050E+01  0.7818608E-02  0.2136455E+00
        -11   -1    0    0    0    0  0.00000000000E+00  0.00000000000E+00  0.50000499739E+01  0.50000500000E+01  0.51100000000E-03 0. -1.
         11   -1    0    0    0    0 -0.00000000000E+00 -0.00000000000E+00 -0.50000499739E+01  0.50000500000E+01  0.51100000000E-03 0.  1.
         50    1    1    2    0    0  0.57167395881E-02 -0.17087650278E-01 -0.13241359313E-01  0.50000500000E+01  0.50000000000E+01 0.  0.
         50    1    1    2    0    0 -0.57167395881E-02  0.17087650278E-01  0.13241359313E-01  0.50000500000E+01  0.50000000000E+01 0.  1.
</event>
<event>
 4    1  0.4944208E-021  0.5000050E+01  0.7818608E-02  0.2136455E+00
        -11   -1    0    0    0    0  0.00000000000E+00  0.00000000000E+00  0.50000499739E+01  0.50000500000E+01  0.51100000000E-03 0. -1.
         11   -1    0    0    0    0 -0.00000000000E+00 -0.00000000000E+00 -0.50000499739E+01  0.50000500000E+01  0.51100000000E-03 0.  1.
         50    1    1    2    0    0 -0.75421468177E-02  0.20605392181E-01 -0.43053843553E-02  0.50000500000E+01  0.50000000000E+01 0.  1.
         50    1    1    2    0    0  0.75421468177E-02 -0.20605392181E-01  0.43053843553E-02  0.50000500000E+01  0.50000000000E+01 0. -1.
</event>
<event>
 4    1  0.4944208E-021  0.5000050E+01  0.7818608E-02  0.2136455E+00
        -11   -1    0    0    0    0  0.00000000000E+00  0.00000000000E+00  0.50000499739E+01  0.50000500000E+01  0.51100000000E-03 0. -1.
         11   -1    0    0    0    0 -0.00000000000E+00 -0.00000000000E+00 -0.50000499739E+01  0.50000500000E+01  0.51100000000E-03 0.  1.
         50    1    1    2    0    0  0.10019459673E-01  0.45160575598E-03 -0.19985219041E-01  0.50000500000E+01  0.50000000000E+01 0.  0.
         50    1    1    2    0    0 -0.10019459673E-01 -0.45160575598E-03  0.19985219041E-01  0.50000500000E+01  0.50000000000E+01 0.  0.
</event>
<event>
 4    1  0.4944208E-021  0.5000050E+01  0.7818608E-02  0.2136455E+00
        -11   -1    0    0    0    0  0.00000000000E+00  0.00000000000E+00  0.50000499739E+01  0.50000500000E+01  0.51100000000E-03 0.  1.
         11   -1    0    0    0    0 -0.00000000000E+00 -0.00000000000E+00 -0.50000499739E+01  0.50000500000E+01  0.51100000000E-03 0. -1.
         50    1    1    2    0    0  0.38735986589E-02 -0.18592101513E-01  0.11803876260E-01  0.50000500000E+01  0.50000000000E+01 0.  1.
         50    1    1    2    0    0 -0.38735986589E-02  0.18592101513E-01 -0.11803876260E-01  0.50000500000E+01  0.50000000000E+01 0. -1.
</event>
<event>
 4    1  0.4944208E-021  0.5000050E+01  0.7818608E-02  0.2136455E+00
        -11   -1    0    0    0    0  0.00000000000E+00  0.00000000000E+00  0.50000499739E+01  0.50000500000E+01  0.51100000000E-03 0. -1.
         11   -1    0    0    0    0 -0.00000000000E+00 -0.00000000000E+00 -0.50000499739E+01  0.50000500000E+01  0.51100000000E-03 0.  1.
         50    1    1    2    0    0 -0.88616411348E-03  0.21906528032E-01 -0.43955935610E-02  0.50000500000E+01  0.50000000000E+01 0. -1.
         50    1    1    2    0    0  0.88616411348E-03 -0.21906528032E-01  0.43955935610E-02  0.50000500000E+01  0.50000000000E+01 0.  1.
</event>
<event>
 4    1  0.4944208E-021  0.5000050E+01  0.7818608E-02  0.2136455E+00
        -11   -1    0    0    0    0  0.00000000000E+00  0.00000000000E+00  0.50000499739E+01  0.50000500000E+01  0.51100000000E-03 0. -1.
         11   -1    0    0    0    0 -0.00000000000E+00 -0.00000000000E+00 -0.50000499739E+01  0.50000500000E+01  0.51100000000E-03 0.  1.
         50    1    1    2    0    0 -0.19238126027E-01 -0.10728732692E-01 -0.38459461523E-02  0.50000500000E+01  0.50000000000E+01 0. -1.
         50    1    1    2    0    0  0.19238126027E-01  0.10728732692E-01  0.38459461523E-02  0.50000500000E+01  0.50000000000E+01 0.  0.
</event>
<event>
 4    1  0.4944208E-021  0.5000050E+01  0.7818608E-02  0.2136455E+00
        -11   -1    0    0    0    0  0.00000000000E+00  0.00000000000E+00  0.50000499739E+01  0.50000500000E+01  0.51100000000E-03 0.  1.
         11   -1    0    0    0    0 -0.00000000000E+00 -0.00000000000E+00 -0.50000499739E+01  0.50000500000E+01  0.51100000000E-03 0. -1.
         50    1    1    2    0    0 -0.13019680405E-01  0.41151081241E-02 -0.17707521207E-01  0.50000500000E+01  0.50000000000E+01 0.  0.
         50    1    1    2    0    0  0.13019680405E-01 -0.41151081241E-02  0.17707521207E-01  0.50000500000E+01  0.50000000000E+01 0.  1.
</event>
<event>
 4    1  0.4944208E-021  0.5000050E+01  0.7818608E-02  0.2136455E+00
        -11   -1    0    0    0    0  0.00000000000E+00  0.00000000000E+00  0.50000499739E+01  0.50000500000E+01  0.51100000000E-03 0.  1.
         11   -1    0    0    0    0 -0.00000000000E+00 -0.00000000000E+00 -0.50000499739E+01  0.50000500000E+01  0.51100000000E-03 0. -1.
         50    1    1    2    0    0  0.13745924487E-01  0.16182810629E-01  0.70120396572E-02  0.50000500000E+01  0.50000000000E+01 0.  0.
         50    1    1    2    0    0 -0.13745924487E-01 -0.16182810629E-01 -0.70120396572E-02  0.50000500000E+01  0.50000000000E+01 0.  1.
</event>
<event>
 4    1  0.4944208E-021  0.5000050E+01  0.7818608E-02  0.2136455E+00
        -11   -1    0    0    0    0  0.00000000000E+00  0.00000000000E+00  0.50000499739E+01  0.50000500000E+01  0.51100000000E-03 0. -1.
         11   -1    0    0    0    0 -0.00000000000E+00 -0.00000000000E+00 -0.50000499739E+01  0.50000500000E+01  0.51100000000E-03 0.  1.
         50    1    1    2    0    0 -0.11712224157E-01 -0.93335454338E-02 -0.16604554644E-01  0.50000500000E+01  0.50000000000E+01 0.  0.
         50    1    1    2    0    0  0.11712224157E-01  0.93335454338E-02  0.16604554644E-01  0.50000500000E+01  0.50000000000E+01 0.  0.
</event>
<event>
 4    1  0.4944208E-021  0.5000050E+01  0.7818608E-02  0.2136455E+00
        -11   -1    0    0    0    0  0.00000000000E+00  0.00000000000E+00  0.50000499739E+01  0.50000500000E+01  0.51100000000E-03 0. -1.
         11   -1    0    0    0    0 -0.00000000000E+00 -0.00000000000E+00 -0.50000499739E+01  0.50000500000E+01  0.51100000000E-03 0.  1.
         50    1    1    2    0    0  0.33185952857E-02  0.15915086181E-01 -0.15352506544E-01  0.50000500000E+01  0.50000000000E+01 0.  0.
         50    1    1    2    0    0 -0.33185952857E-02 -0.15915086181E-01  0.15352506544E-01  0.50000500000E+01  0.50000000000E+01 0.  0.
</event>
<event>
 4    1  0.4944208E-021  0.5000050E+01  0.7818608E-02  0.2136455E+00
        -11   -1    0    0    0    0  0.00000000000E+00  0.00000000000E+00  0.50000499739E+01  0.50000500000E+01  0.51100000000E-03 0.  1.
         11   -1    0    0    0    0 -0.00000000000E+00 -0.00000000000E+00 -0.50000499739E+01  0.50000500000E+01  0.51100000000E-03 0. -1.
         50    1    1    2    0    0 -0.18494440027E-01  0.78080899349E-02  0.98484475765E-02  0.50000500000E+01  0.50000000000E+01 0.  1.
         50    1    1    2    0    0  0.18494440027E-01 -0.78080899349E-02 -0.98484475765E-02  0.50000500000E+01  0.50000000000E+01 0.  1.
</event>
<event>
 4    1  0.4944208E-021  0.5000050E+01  0.7818608E-02  0.2136455E+00
        -11   -1    0    0    0    0  0.00000000000E+00  0.00000000000E+00  0.50000499739E+01  0.50000500000E+01  0.51100000000E-03 0.  1.
         11   -1    0    0    0    0 -0.00000000000E+00 -0.00000000000E+00 -0.50000499739E+01  0.50000500000E+01  0.51100000000E-03 0. -1.
         50    1    1    2    0    0  0.20297010859E-01  0.72625230283E-02  0.59405058242E-02  0.50000500000E+01  0.50000000000E+01 0.  1.
         50    1    1    2    0    0 -0.20297010859E-01 -0.72625230283E-02 -0.59405058242E-02  0.50000500000E+01  0.50000000000E+01 0. -1.
</event>
<event>
 4    1  0.4944208E-021  0.5000050E+01  0.7818608E-02  0.2136455E+00
        -11   -1    0    0    0    0  0.00000000000E+00  0.00000000000E+00  0.50000499739E+01  0.50000500000E+01  0.51100000000E-03 0. -1.
         11   -1    0    0    0    0 -0.00000000000E+00 -0.00000000000E+00 -0.50000499739E+01  0.50000500000E+01  0.51100000000E-03 0.  1.
         50    1    1    2    0    0  0.61824107838E-02 -0.79956172345E-02 -0.19946187654E-01  0.50000500000E+01  0.50000000000E+01 0.  1.
         50    1    1    2    0    0 -0.61824107838E-02  0.79956172345E-02  0.19946187654E-01  0.50000500000E+01  0.50000000000E+01 0.  0.
</event>
<event>
 4    1  0.4944208E-021  0.5000050E+01  0.7818608E-02  0.2136455E+00
        -11   -1    0    0    0    0  0.00000000000E+00  0.00000000000E+00  0.50000499739E+01  0.50000500000E+01  0.51100000000E-03 0.  1.
         11   -1    0    0    0    0 -0.00000000000E+00 -0.00000000000E+00 -0.50000499739E+01  0.50000500000E+01  0.51100000000E-03 0. -1.
         50    1    1    2    0    0 -0.19725953308E-02  0.10606711155E-01 -0.19585940011E-01  0.50000500000E+01  0.50000000000E+01 0. -1.
         50    1    1    2    0    0  0.19725953308E-02 -0.10606711155E-01  0.19585940011E-01  0.50000500000E+01  0.50000000000E+01 0.  0.
</event>
<event>
 4    1  0.4944208E-021  0.5000050E+01  0.7818608E-02  0.2136455E+00
        -11   -1    0    0    0    0  0.00000000000E+00  0.00000000000E+00  0.50000499739E+01  0.50000500000E+01  0.51100000000E-03 0.  1.
         11   -1    0    0    0    0 -0.00000000000E+00 -0.00000000000E+00 -0.50000499739E+01  0.50000500000E+01  0.51100000000E-03 0. -1.
         50    1    1    2    0    0 -0.21487996125E-02  0.99192889336E-02  0.19924679854E-01  0.50000500000E+01  0.50000000000E+01 0.  0.
         50    1    1    2    0    0  0.21487996125E-02 -0.99192889336E-02 -0.19924679854E-01  0.50000500000E+01  0.50000000000E+01 0. -1.
</event>
<event>
 4    1  0.4944208E-021  0.5000050E+01  0.7818608E-02  0.2136455E+00
        -11   -1    0    0    0    0  0.00000000000E+00  0.00000000000E+00  0.50000499739E+01  0.50000500000E+01  0.51100000000E-03 0. -1.
         11   -1    0    0    0    0 -0.00000000000E+00 -0.00000000000E+00 -0.50000499739E+01  0.50000500000E+01  0.51100000000E-03 0.  1.
         50    1    1    2    0    0 -0.21181306429E-01  0.70634500039E-02  0.12093105500E-02  0.50000500000E+01  0.50000000000E+01 0.  1.
         50    1    1    2    0    0  0.21181306429E-01 -0.70634500039E-02 -0.12093105500E-02  0.50000500000E+01  0.50000000000E+01 0. -1.
</event>
<event>
 4    1  0.4944208E-021  0.5000050E+01  0.7818608E-02  0.2136455E+00
        -11   -1    0    0    0    0  0.00000000000E+00  0.00000000000E+00  0.50000499739E+01  0.50000500000E+01  0.51100000000E-03 0. -1.
         11   -1    0    0    0    0 -0.00000000000E+00 -0.00000000000E+00 -0.50000499739E+01  0.50000500000E+01  0.51100000000E-03 0.  1.
         50    1    1    2    0    0  0.15083382738E-01  0.11744678179E-01 -0.11599853432E-01  0.50000500000E+01  0.50000000000E+01 0.  1.
         50    1    1    2    0    0 -0.15083382738E-01 -0.11744678179E-01  0.11599853432E-01  0.50000500000E+01  0.50000000000E+01 0. -1.
</event>
<event>
 4    1  0.4944208E-021  0.5000050E+01  0.7818608E-02  0.2136455E+00
        -11   -1    0    0    0    0  0.00000000000E+00  0.00000000000E+00  0.50000499739E+01  0.50000500000E+01  0.51100000000E-03 0.  1.
         11   -1    0    0    0    0 -0.00000000000E+00 -0.00000000000E+00 -0.50000499739E+01  0.50000500000E+01  0.51100000000E-03 0. -1.
         50    1    1    2    0    0 -0.59911351240E-02 -0.11594838853E-01 -0.18156775922E-01  0.50000500000E+01  0.50000000000E+01 0. -1.
         50    1    1    2    0    0  0.59911351240E-02  0.11594838853E-01  0.18156775922E-01  0.50000500000E+01  0.50000000000E+01 0.  0.
</event>
<event>
 4    1  0.4944208E-021  0.5000050E+01  0.7818608E-02  0.2136455E+00
        -11   -1    0    0    0    0  0.00000000000E+00  0.00000000000E+00  0.50000499739E+01  0.50000500000E+01  0.51100000000E-03 0.  1.
         11   -1    0    0    0    0 -0.00000000000E+00 -0.00000000000E+00 -0.50000499739E+01  0.50000500000E+01  0.51100000000E-03 0. -1.
         50    1    1    2    0    0 -0.87140816348E-02  0.19304824935E-01  0.71687527163E-02  0.50000500000E+01  0.50000000000E+01 0.  1.
         50    1    1    2    0    0  0.87140816348E-02 -0.19304824935E-01 -0.71687527163E-02  0.50000500000E+01  0.50000000000E+01 0. -1.
</event>
<event>
 4    1  0.4944208E-021  0.5000050E+01  0.7818608E-02  0.2136455E+00
        -11   -1    0    0    0    0  0.00000000000E+00  0.00000000000E+00  0.50000499739E+01  0.50000500000E+01  0.51100000000E-03 0.  1.
         11   -1    0    0    0    0 -0.00000000000E+00 -0.00000000000E+00 -0.50000499739E+01  0.50000500000E+01  0.51100000000E-03 0. -1.
         50    1    1    2    0    0  0.10951718080E-01  0.96298179570E-02 -0.16950781021E-01  0.50000500000E+01  0.50000000000E+01 0.  0.
         50    1    1    2    0    0 -0.10951718080E-01 -0.96298179570E-02  0.16950781021E-01  0.50000500000E+01  0.50000000000E+01 0.  0.
</event>
<event>
 4    1  0.4944208E-021  0.5000050E+01  0.7818608E-02  0.2136455E+00
        -11   -1    0    0    0    0  0.00000000000E+00  0.00000000000E+00  0.50000499739E+01  0.50000500000E+01  0.51100000000E-03 0. -1.
         11   -1    0    0    0    0 -0.00000000000E+00 -0.00000000000E+00 -0.50000499739E+01  0.50000500000E+01  0.51100000000E-03 0.  1.
         50    1    1    2    0    0 -0.21944656315E-01 -0.26182148311E-02 -0.34028679560E-02  0.50000500000E+01  0.50000000000E+01 0. -1.
         50    1    1    2    0    0  0.21944656315E-01  0.26182148311E-02  0.34028679560E-02  0.50000500000E+01  0.50000000000E+01 0.  0.
</event>
<event>
 4    1  0.4944208E-021  0.5000050E+01  0.7818608E-02  0.2136455E+00
        -11   -1    0    0    0    0  0.00000000000E+00  0.00000000000E+00  0.50000499739E+01  0.50000500000E+01  0.51100000000E-03 0.  1.
         11   -1    0    0    0    0 -0.00000000000E+00 -0.00000000000E+00 -0.50000499739E+01  0.50000500000E+01  0.51100000000E-03 0. -1.
         50    1    1    2    0    0 -0.15741364624E-01 -0.12674870564E-01  0.95686778572E-02  0.50000500000E+01  0.50000000000E+01 0.  1.
         50    1    1    2    0    0  0.15741364624E-01  0.12674870564E-01 -0.95686778572E-02  0.50000500000E+01  0.50000000000E+01 0. -1.
</event>
<event>
 4    1  0.4944208E-021  0.5000050E+01  0.7818608E-02  0.2136455E+00
        -11   -1    0    0    0    0  0.00000000000E+00  0.00000000000E+00  0.50000499739E+01  0.50000500000E+01  0.51100000000E-03 0.  1.
         11   -1    0    0    0    0 -0.00000000000E+00 -0.00000000000E+00 -0.50000499739E+01  0.50000500000E+01  0.51100000000E-03 0. -1.
         50    1    1    2    0    0  0.92233361409E-02  0.73957778219E-02  0.18979858820E-01  0.50000500000E+01  0.50000000000E+01 0.  0.
         50    1    1    2    0    0 -0.92233361409E-02 -0.73957778219E-02 -0.18979858820E-01  0.50000500000E+01  0.50000000000E+01 0.  0.
</event>
<event>
 4    1  0.4944208E-021  0.5000050E+01  0.7818608E-02  0.2136455E+00
        -11   -1    0    0    0    0  0.00000000000E+00  0.00000000000E+00  0.50000499739E+01  0.50000500000E+01  0.51100000000E-03 0. -1.
         11   -1    0    0    0    0 -0.00000000000E+00 -0.00000000000E+00 -0.50000499739E+01  0.50000500000E+01  0.51100000000E-03 0.  1.
         50    1    1    2    0    0  0.71526870072E-02  0.21175982055E-01  0.64757437546E-03  0.50000500000E+01  0.50000000000E+01 0.  0.
         50    1    1    2    0    0 -0.71526870072E-02 -0.21175982055E-01 -0.64757437546E-03  0.50000500000E+01  0.50000000000E+01 0. -1.
</event>
<event>
 4    1  0.4944208E-021  0.5000050E+01  0.7818608E-02  0.2136455E+00
        -11   -1    0    0    0    0  0.00000000000E+00  0.00000000000E+00  0.50000499739E+01  0.50000500000E+01  0.51100000000E-03 0.  1.
         11   -1    0    0    0    0 -0.00000000000E+00 -0.00000000000E+00 -0.50000499739E+01  0.50000500000E+01  0.51100000000E-03 0. -1.
         50    1    1    2    0    0  0.11672379237E-01 -0.18624167959E-01  0.41107700978E-02  0.50000500000E+01  0.50000000000E+01 0. -1.
         50    1    1    2    0    0 -0.11672379237E-01  0.18624167959E-01 -0.41107700978E-02  0.50000500000E+01  0.50000000000E+01 0.  0.
</event>
<event>
 4    1  0.4944208E-021  0.5000050E+01  0.7818608E-02  0.2136455E+00
        -11   -1    0    0    0    0  0.00000000000E+00  0.00000000000E+00  0.50000499739E+01  0.50000500000E+01  0.51100000000E-03 0. -1.
         11   -1    0    0    0    0 -0.00000000000E+00 -0.00000000000E+00 -0.50000499739E+01  0.50000500000E+01  0.51100000000E-03 0.  1.
         50    1    1    2    0    0 -0.21266728185E-02 -0.20660500692E-01 -0.82839286504E-02  0.50000500000E+01  0.50000000000E+01 0.  1.
         50    1    1    2    0    0  0.21266728185E-02  0.20660500692E-01  0.82839286504E-02  0.50000500000E+01  0.50000000000E+01 0. -1.
</event>
<event>
 4    1  0.4944208E-021  0.5000050E+01  0.7818608E-02  0.2136455E+00
        -11   -1    0    0    0    0  0.00000000000E+00  0.00000000000E+00  0.50000499739E+01  0.50000500000E+01  0.51100000000E-03 0.  1.
         11   -1    0    0    0    0 -0.00000000000E+00 -0.00000000000E+00 -0.50000499739E+01  0.50000500000E+01  0.51100000000E-03 0. -1.
         50    1    1    2    0    0 -0.62366168478E-02 -0.21377116264E-01 -0.20312583607E-02  0.50000500000E+01  0.50000000000E+01 0.  0.
         50    1    1    2    0    0  0.62366168478E-02  0.21377116264E-01  0.20312583607E-02  0.50000500000E+01  0.50000000000E+01 0. -1.
</event>
<event>
 4    1  0.4944208E-021  0.5000050E+01  0.7818608E-02  0.2136455E+00
        -11   -1    0    0    0    0  0.00000000000E+00  0.00000000000E+00  0.50000499739E+01  0.50000500000E+01  0.51100000000E-03 0. -1.
         11   -1    0    0    0    0 -0.00000000000E+00 -0.00000000000E+00 -0.50000499739E+01  0.50000500000E+01  0.51100000000E-03 0.  1.
         50    1    1    2    0    0 -0.10686585762E-02 -0.18236532963E-01  0.12895322188E-01  0.50000500000E+01  0.50000000000E+01 0. -1.
         50    1    1    2    0    0  0.10686585762E-02  0.18236532963E-01 -0.12895322188E-01  0.50000500000E+01  0.50000000000E+01 0. -1.
</event>
<event>
 4    1  0.4944208E-021  0.5000050E+01  0.7818608E-02  0.2136455E+00
        -11   -1    0    0    0    0  0.00000000000E+00  0.00000000000E+00  0.50000499739E+01  0.50000500000E+01  0.51100000000E-03 0.  1.
         11   -1    0    0    0    0 -0.00000000000E+00 -0.00000000000E+00 -0.50000499739E+01  0.50000500000E+01  0.51100000000E-03 0. -1.
         50    1    1    2    0    0  0.15471505421E-01  0.15610764057E-01  0.41157096057E-02  0.50000500000E+01  0.50000000000E+01 0.  1.
         50    1    1    2    0    0 -0.15471505421E-01 -0.15610764057E-01 -0.41157096057E-02  0.50000500000E+01  0.50000000000E+01 0. -1.
</event>
<event>
 4    1  0.4944208E-021  0.5000050E+01  0.7818608E-02  0.2136455E+00
        -11   -1    0    0    0    0  0.00000000000E+00  0.00000000000E+00  0.50000499739E+01  0.50000500000E+01  0.51100000000E-03 0.  1.
         11   -1    0    0    0    0 -0.00000000000E+00 -0.00000000000E+00 -0.50000499739E+01  0.50000500000E+01  0.51100000000E-03 0. -1.
         50    1    1    2    0    0 -0.48579174937E-02  0.20245135785E-01  0.81570591922E-02  0.50000500000E+01  0.50000000000E+01 0. -1.
         50    1    1    2    0    0  0.48579174937E-02 -0.20245135785E-01 -0.81570591922E-02  0.50000500000E+01  0.50000000000E+01 0.  0.
</event>
