<event>
 4    1  0.5060607E-021  0.5000050E+01  0.7818608E-02  0.2136455E+00
        -11   -1    0    0    0    0  0.00000000000E+00  0.00000000000E+00  0.50000499739E+01  0.50000500000E+01  0.51100000000E-03 0. -1.
         11   -1    0    0    0    0 -0.00000000000E+00 -0.00000000000E+00 -0.50000499739E+01  0.50000500000E+01  0.51100000000E-03 0.  1.
         50    1    1    2    0    0 -0.15435382138E-03 -0.19739197668E-01  0.10504415753E-01  0.50000500000E+01  0.50000000000E+01 0. -1.
         50    1    1    2    0    0  0.15435382138E-03  0.19739197668E-01 -0.10504415753E-01  0.50000500000E+01  0.50000000000E+01 0.  1.
</event>
<event>
 4    1  0.5060607E-021  0.5000050E+01  0.7818608E-02  0.2136455E+00
        -11   -1    0    0    0    0  0.00000000000E+00  0.00000000000E+00  0.50000499739E+01  0.50000500000E+01  0.51100000000E-03 0.  1.
         11   -1    0    0    0    0 -0.00000000000E+00 -0.00000000000E+00 -0.50000499739E+01  0.50000500000E+01  0.51100000000E-03 0. -1.
         50    1    1    2    0    0  0.21205901839E-01  0.37255326587E-02  0.60359451292E-02  0.50000500000E+01  0.50000000000E+01 0.  0.
         50    1    1    2    0    0 -0.21205901839E-01 -0.37255326587E-02 -0.60359451292E-02  0.50000500000E+01  0.50000000000E+01 0.  1.
</event>
<event>
 4    1  0.5060607E-021  0.5000050E+01  0.7818608E-02  0.2136455E+00
        -11   -1    0    0    0    0  0.00000000000E+00  0.00000000000E+00  0.50000499739E+01  0.50000500000E+01  0.51100000000E-03 0. -1.
         11   -1    0    0    0    0 -0.00000000000E+00 -0.00000000000E+00 -0.50000499739E+01  0.50000500000E+01  0.51100000000E-03 0.  1.
         50    1    1    2    0    0  0.31883503729E-02  0.13530521681E-01  0.17514619748E-01  0.50000500000E+01  0.50000000000E+01 0.  0.
         50    1    1    2    0    0 -0.31883503729E-02 -0.13530521681E-01 -0.17514619748E-01  0.50000500000E+01  0.50000000000E+01 0. -1.
</event>
<event>
 4    1  0.5060607E-021  0.5000050E+01  0.7818608E-02  0.2136455E+00
        -11   -1    0    0    0    0  0.00000000000E+00  0.00000000000E+00  0.50000499739E+01  0.50000500000E+01  0.51100000000E-03 0. -1.
         11   -1    0    0    0    0 -0.00000000000E+00 -0.00000000000E+00 -0.50000499739E+01  0.50000500000E+01  0.51100000000E-03 0.  1.
         50    1    1    2    0    0  0.21137377103E-01 -0.68613274015E-02  0.24770901276E-02  0.50000500000E+01  0.50000000000E+01 0. -1.
         50    1    1    2    0    0 -0.21137377103E-01  0.68613274015E-02 -0.24770901276E-02  0.50000500000E+01  0.50000000000E+01 0.  1.
</event>
<event>
 4    1  0.5060607E-021  0.5000050E+01  0.7818608E-02  0.2136455E+00
        -11   -1    0    0    0    0  0.00000000000E+00  0.00000000000E+00  0.50000499739E+01  0.50000500000E+01  0.51100000000E-03 0.  1.
         11   -1    0    0    0    0 -0.00000000000E+00 -0.00000000000E+00 -0.50000499739E+01  0.50000500000E+01  0.51100000000E-03 0. -1.
         50    1    1    2    0    0  0.10324208985E-01 -0.17829300740E-02  0.19754350640E-01  0.50000500000E+01  0.50000000000E+01 0.  0.
         50    1    1    2    0    0 -0.10324208985E-01  0.17829300740E-02 -0.19754350640E-01  0.50000500000E+01  0.50000000000E+01 0.  0.
</event>
<event>
 4    1  0.5060607E-021  0.5000050E+01  0.7818608E-02  0.2136455E+00
        -11   -1    0    0    0    0  0.00000000000E+00  0.00000000000E+00  0.50000499739E+01  0.50000500000E+01  0.51100000000E-03 0.  1.
         11   -1    0    0    0    0 -0.00000000000E+00 -0.00000000000E+00 -0.50000499739E+01  0.50000500000E+01  0.51100000000E-03 0. -1.
         50    1    1    2    0    0 -0.12641833181E-01 -0.16168588758E-01 -0.88748685286E-02  0.50000500000E+01  0.50000000000E+01 0.  0.
         50    1    1    2    0    0  0.12641833181E-01  0.16168588758E-01  0.88748685286E-02  0.50000500000E+01  0.50000000000E+01 0. -1.
</event>
<event>
 4    1  0.5060607E-021  0.5000050E+01  0.7818608E-02  0.2136455E+00
        -11   -1    0    0    0    0  0.00000000000E+00  0.00000000000E+00  0.50000499739E+01  0.50000500000E+01  0.51100000000E-03 0.  1.
         11   -1    0    0    0    0 -0.00000000000E+00 -0.00000000000E+00 -0.50000499739E+01  0.50000500000E+01  0.51100000000E-03 0. -1.
         50    1    1    2    0    0  0.22108233265E-01 -0.30132029003E-02  0.14659911880E-02  0.50000500000E+01  0.50000000000E+01 0. -1.
         50    1    1    2    0    0 -0.22108233265E-01  0.30132029003E-02 -0.14659911880E-02  0.50000500000E+01  0.50000000000E+01 0.  1.
</event>
<event>
 4    1  0.5060607E-021  0.5000050E+01  0.7818608E-02  0.2136455E+00
        -11   -1    0    0    0    0  0.00000000000E+00  0.00000000000E+00  0.50000499739E+01  0.50000500000E+01  0.51100000000E-03 0. -1.
         11   -1    0    0    0    0 -0.00000000000E+00 -0.00000000000E+00 -0.50000499739E+01  0.50000500000E+01  0.51100000000E-03 0.  1.
         50    1    1    2    0    0 -0.20580721276E-01  0.86916535724E-02 -0.94422981849E-03  0.50000500000E+01  0.50000000000E+01 0. -1.
         50    1    1    2    0    0  0.20580721276E-01 -0.86916535724E-02  0.94422981849E-03  0.50000500000E+01  0.50000000000E+01 0.  0.
</event>
<event>
 4    1  0.5060607E-021  0.5000050E+01  0.7818608E-02  0.2136455E+00
        -11   -1    0    0    0    0  0.00000000000E+00  0.00000000000E+00  0.50000499739E+01  0.50000500000E+01  0.51100000000E-03 0.  1.
         11   -1    0    0    0    0 -0.00000000000E+00 -0.00000000000E+00 -0.50000499739E+01  0.50000500000E+01  0.51100000000E-03 0. -1.
         50    1    1    2    0    0 -0.92556729415E-02  0.16622788136E-01  0.11748103378E-01  0.50000500000E+01  0.50000000000E+01 0.  1.
         50    1    1    2    0    0  0.92556729415E-02 -0.16622788136E-01 -0.11748103378E-01  0.50000500000E+01  0.50000000000E+01 0. -1.
</event>
<event>
 4    1  0.5060607E-021  0.5000050E+01  0.7818608E-02  0.2136455E+00
        -11   -1    0    0    0    0  0.00000000000E+00  0.00000000000E+00  0.50000499739E+01  0.50000500000E+01  0.51100000000E-03 0. -1.
         11   -1    0    0    0    0 -0.00000000000E+00 -0.00000000000E+00 -0.50000499739E+01  0.50000500000E+01  0.51100000000E-03 0.  1.
         50    1    1    2    0    0 -0.12314830600E-01  0.13557859804E-02  0.18614760048E-01  0.50000500000E+01  0.50000000000E+01 0.  0.
         50    1    1    2    0    0  0.12314830600E-01 -0.13557859804E-02 -0.18614760048E-01  0.50000500000E+01  0.50000000000E+01 0.  1.
</event>
<event>
 4    1  0.5060607E-021  0.5000050E+01  0.7818608E-02  0.2136455E+00
        -11   -1    0    0    0    0  0.00000000000E+00  0.00000000000E+00  0.50000499739E+01  0.50000500000E+01  0.51100000000E-03 0.  1.
         11   -1    0    0    0    0 -0.00000000000E+00 -0.00000000000E+00 -0.50000499739E+01  0.50000500000E+01  0.51100000000E-03 0. -1.
         50    1    1    2    0    0  0.66524835459E-02 -0.17841402323E-01  0.11723110756E-01  0.50000500000E+01  0.50000000000E+01 0.  0.
         50    1    1    2    0    0 -0.66524835459E-02  0.17841402323E-01 -0.11723110756E-01  0.50000500000E+01  0.50000000000E+01 0.  0.
</event>
<event>
 4    1  0.5060607E-021  0.5000050E+01  0.7818608E-02  0.2136455E+00
        -11   -1    0    0    0    0  0.00000000000E+00  0.00000000000E+00  0.50000499739E+01  0.50000500000E+01  0.51100000000E-03 0. -1.
         11   -1    0    0    0    0 -0.00000000000E+00 -0.00000000000E+00 -0.50000499739E+01  0.50000500000E+01  0.51100000000E-03 0.  1.
         50    1    1    2    0    0  0.20006717158E-01  0.85588664374E-02 -0.51458307255E-02  0.50000500000E+01  0.50000000000E+01 0.  1.
         50    1    1    2    0    0 -0.20006717158E-01 -0.85588664374E-02  0.51458307255E-02  0.50000500000E+01  0.50000000000E+01 0. -1.
</event>
<event>
 4    1  0.5060607E-021  0.5000050E+01  0.7818608E-02  0.2136455E+00
        -11   -1    0    0    0    0  0.00000000000E+00  0.00000000000E+00  0.50000499739E+01  0.50000500000E+01  0.51100000000E-03 0.  1.
         11   -1    0    0    0    0 -0.00000000000E+00 -0.00000000000E+00 -0.50000499739E+01  0.50000500000E+01  0.51100000000E-03 0. -1.
         50    1    1    2    0    0  0.36997108379E-02 -0.21579738668E-01  0.45419730005E-02  0.50000500000E+01  0.50000000000E+01 0.  1.
         50    1    1    2    0    0 -0.36997108379E-02  0.21579738668E-01 -0.45419730005E-02  0.50000500000E+01  0.50000000000E+01 0.  1.
</event>
<event>
 4    1  0.5060607E-021  0.5000050E+01  0.7818608E-02  0.2136455E+00
        -11   -1    0    0    0    0  0.00000000000E+00  0.00000000000E+00  0.50000499739E+01  0.50000500000E+01  0.51100000000E-03 0. -1.
         11   -1    0    0    0    0 -0.00000000000E+00 -0.00000000000E+00 -0.50000499739E+01  0.50000500000E+01  0.51100000000E-03 0.  1.
         50    1    1    2    0    0 -0.18125149581E-02  0.21052018332E-01  0.73164071567E-02  0.50000500000E+01  0.50000000000E+01 0. -1.
         50    1    1    2    0    0  0.18125149581E-02 -0.21052018332E-01 -0.73164071567E-02  0.50000500000E+01  0.50000000000E+01 0.  1.
</event>
<event>
 4    1  0.5060607E-021  0.5000050E+01  0.7818608E-02  0.2136455E+00
        -11   -1    0    0    0    0  0.00000000000E+00  0.00000000000E+00  0.50000499739E+01  0.50000500000E+01  0.51100000000E-03 0.  1.
         11   -1    0    0    0    0 -0.00000000000E+00 -0.00000000000E+00 -0.50000499739E+01  0.50000500000E+01  0.51100000000E-03 0. -1.
         50    1    1    2    0    0 -0.32426120006E-02  0.16475799989E-01  0.14766041519E-01  0.50000500000E+01  0.50000000000E+01 0.  1.
         50    1    1    2    0    0  0.32426120006E-02 -0.16475799989E-01 -0.14766041519E-01  0.50000500000E+01  0.50000000000E+01 0.  0.
</event>
<event>
 4    1  0.5060607E-021  0.5000050E+01  0.7818608E-02  0.2136455E+00
        -11   -1    0    0    0    0  0.00000000000E+00  0.00000000000E+00  0.50000499739E+01  0.50000500000E+01  0.51100000000E-03 0.  1.
         11   -1    0    0    0    0 -0.00000000000E+00 -0.00000000000E+00 -0.50000499739E+01  0.50000500000E+01  0.51100000000E-03 0. -1.
         50    1    1    2    0    0  0.10321420159E-02  0.11877660889E-01  0.18917144464E-01  0.50000500000E+01  0.50000000000E+01 0. -1.
         50    1    1    2    0    0 -0.10321420159E-02 -0.11877660889E-01 -0.18917144464E-01  0.50000500000E+01  0.50000000000E+01 0. -1.
</event>
<event>
 4    1  0.5060607E-021  0.5000050E+01  0.7818608E-02  0.2136455E+00
        -11   -1    0    0    0    0  0.00000000000E+00  0.00000000000E+00  0.50000499739E+01  0.50000500000E+01  0.51100000000E-03 0.  1.
         11   -1    0    0    0    0 -0.00000000000E+00 -0.00000000000E+00 -0.50000499739E+01  0.50000500000E+01  0.51100000000E-03 0. -1.
         50    1    1    2    0    0 -0.35258242232E-02 -0.19998460639E-01 -0.93612304533E-02  0.50000500000E+01  0.50000000000E+01 0. -1.
         50    1    1    2    0    0  0.35258242232E-02  0.19998460639E-01  0.93612304533E-02  0.50000500000E+01  0.50000000000E+01 0.  1.
</event>
<event>
 4    1  0.5060607E-021  0.5000050E+01  0.7818608E-02  0.2136455E+00
        -11   -1    0    0    0    0  0.00000000000E+00  0.00000000000E+00  0.50000499739E+01  0.50000500000E+01  0.51100000000E-03 0. -1.
         11   -1    0    0    0    0 -0.00000000000E+00 -0.00000000000E+00 -0.50000499739E+01  0.50000500000E+01  0.51100000000E-03 0.  1.
         50    1    1    2    0    0  0.21935084560E-01 -0.84923650114E-03  0.42583286288E-02  0.50000500000E+01  0.50000000000E+01 0.  0.
         50    1    1    2    0    0 -0.21935084560E-01  0.84923650114E-03 -0.42583286288E-02  0.50000500000E+01  0.50000000000E+01 0.  0.
</event>
<event>
 4    1  0.5060607E-021  0.5000050E+01  0.7818608E-02  0.2136455E+00
        -11   -1    0    0    0    0  0.00000000000E+00  0.00000000000E+00  0.50000499739E+01  0.50000500000E+01  0.51100000000E-03 0. -1.
         11   -1    0    0    0    0 -0.00000000000E+00 -0.00000000000E+00 -0.50000499739E+01  0.50000500000E+01  0.51100000000E-03 0.  1.
         50    1    1    2    0    0 -0.82327011823E-02  0.19318034523E-01 -0.76836627601E-02  0.50000500000E+01  0.50000000000E+01 0.  0.
         50    1    1    2    0    0  0.82327011823E-02 -0.19318034523E-01  0.76836627601E-02  0.50000500000E+01  0.50000000000E+01 0.  0.
</event>
<event>
 4    1  0.5060607E-021  0.5000050E+01  0.7818608E-02  0.2136455E+00
        -11   -1    0    0    0    0  0.00000000000E+00  0.00000000000E+00  0.50000499739E+01  0.50000500000E+01  0.51100000000E-03 0. -1.
         11   -1    0    0    0    0 -0.00000000000E+00 -0.00000000000E+00 -0.50000499739E+01  0.50000500000E+01  0.51100000000E-03 0.  1.
         50    1    1    2    0    0  0.11282998752E-01  0.30517737256E-02 -0.19062610427E-01  0.50000500000E+01  0.50000000000E+01 0.  1.
         50    1    1    2    0    0 -0.11282998752E-01 -0.30517737256E-02  0.19062610427E-01  0.50000500000E+01  0.50000000000E+01 0.  0.
</event>
<event>
 4    1  0.5060607E-021  0.5000050E+01  0.7818608E-02  0.2136455E+00
        -11   -1    0    0    0    0  0.00000000000E+00  0.00000000000E+00  0.50000499739E+01  0.50000500000E+01  0.51100000000E-03 0.  1.
         11   -1    0    0    0    0 -0.00000000000E+00 -0.00000000000E+00 -0.50000499739E+01  0.50000500000E+01  0.51100000000E-03 0. -1.
         50    1    1    2    0    0 -0.93517267418E-02 -0.13555360467E-01  0.15126133331E-01  0.50000500000E+01  0.50000000000E+01 0. -1.
         50    1    1    2    0    0  0.93517267418E-02  0.13555360467E-01 -0.15126133331E-01  0.50000500000E+01  0.50000000000E+01 0.  0.
</event>
<event>
 4    1  0.5060607E-021  0.5000050E+01  0.7818608E-02  0.2136455E+00
        -11   -1    0    0    0    0  0.00000000000E+00  0.00000000000E+00  0.50000499739E+01  0.50000500000E+01  0.51100000000E-03 0.  1.
         11   -1    0    0    0    0 -0.00000000000E+00 -0.00000000000E+00 -0.50000499739E+01  0.50000500000E+01  0.51100000000E-03 0. -1.
         50    1    1    2    0    0 -0.49196648341E-02 -0.17817715148E-01  0.12582862346E-01  0.50000500000E+01  0.50000000000E+01 0.  1.
         50    1    1    2    0    0  0.49196648341E-02  0.17817715148E-01 -0.12582862346E-01  0.50000500000E+01  0.50000000000E+01 0. -1.
</event>
<event>
 4    1  0.5060607E-021  0.5000050E+01  0.7818608E-02  0.2136455E+00
        -11   -1    0    0    0    0  0.00000000000E+00  0.00000000000E+00  0.50000499739E+01  0.50000500000E+01  0.51100000000E-03 0.  1.
         11   -1    0    0    0    0 -0.00000000000E+00 -0.00000000000E+00 -0.50000499739E+01  0.50000500000E+01  0.51100000000E-03 0. -1.
         50    1    1    2    0    0  0.18548634647E-01  0.24132528642E-02  0.12252626793E-01  0.50000500000E+01  0.50000000000E+01 0.  1.
         50    1    1    2    0    0 -0.18548634647E-01 -0.24132528642E-02 -0.12252626793E-01  0.50000500000E+01  0.50000000000E+01 0. -1.
</event>
<event>
 4    1  0.5060607E-021  0.5000050E+01  0.7818608E-02  0.2136455E+00
        -11   -1    0    0    0    0  0.00000000000E+00  0.00000000000E+00  0.50000499739E+01  0.50000500000E+01  0.51100000000E-03 0. -1.
         11   -1    0    0    0    0 -0.00000000000E+00 -0.00000000000E+00 -0.50000499739E+01  0.50000500000E+01  0.51100000000E-03 0.  1.
         50    1    1    2    0    0  0.21253571456E-01 -0.64304386317E-02  0.26339436921E-02  0.50000500000E+01  0.50000000000E+01 0.  0.
         50    1    1    2    0    0 -0.21253571456E-01  0.64304386317E-02 -0.26339436921E-02  0.50000500000E+01  0.50000000000E+01 0. -1.
</event>
<event>
 4    1  0.5060607E-021  0.5000050E+01  0.7818608E-02  0.2136455E+00
        -11   -1    0    0    0    0  0.00000000000E+00  0.00000000000E+00  0.50000499739E+01  0.50000500000E+01  0.51100000000E-03 0.  1.
         11   -1    0    0    0    0 -0.00000000000E+00 -0.00000000000E+00 -0.50000499739E+01  0.50000500000E+01  0.51100000000E-03 0. -1.
         50    1    1    2    0    0  0.10512528740E-01 -0.18740344554E-01  0.61877884172E-02  0.50000500000E+01  0.50000000000E+01 0.  1.
         50    1    1    2    0    0 -0.10512528740E-01  0.18740344554E-01 -0.61877884172E-02  0.50000500000E+01  0.50000000000E+01 0.  0.
</event>
<event>
 4    1  0.5060607E-021  0.5000050E+01  0.7818608E-02  0.2136455E+00
        -11   -1    0    0    0    0  0.00000000000E+00  0.00000000000E+00  0.50000499739E+01  0.50000500000E+01  0.51100000000E-03 0.  1.
         11   -1    0    0    0    0 -0.00000000000E+00 -0.00000000000E+00 -0.50000499739E+01  0.50000500000E+01  0.51100000000E-03 0. -1.
         50    1    1    2    0    0 -0.42865274330E-02 -0.52593216105E-02 -0.21306518222E-01  0.50000500000E+01  0.50000000000E+01 0. -1.
         50    1    1    2    0    0  0.42865274330E-02  0.52593216105E-02  0.21306518222E-01  0.50000500000E+01  0.50000000000E+01 0.  0.
</event>
<event>
 4    1  0.5060607E-021  0.5000050E+01  0.7818608E-02  0.2136455E+00
        -11   -1    0    0    0    0  0.00000000000E+00  0.00000000000E+00  0.50000499739E+01  0.50000500000E+01  0.51100000000E-03 0. -1.
         11   -1    0    0    0    0 -0.00000000000E+00 -0.00000000000E+00 -0.50000499739E+01  0.50000500000E+01  0.51100000000E-03 0.  1.
         50    1    1    2    0    0 -0.18655053714E-01 -0.65070011511E-02 -0.10471409024E-01  0.50000500000E+01  0.50000000000E+01 0.  1.
         50    1    1    2    0    0  0.18655053714E-01  0.65070011511E-02  0.10471409024E-01  0.50000500000E+01  0.50000000000E+01 0.  1.
</event>
<event>
 4    1  0.5060607E-021  0.5000050E+01  0.7818608E-02  0.2136455E+00
        -11   -1    0    0    0    0  0.00000000000E+00  0.00000000000E+00  0.50000499739E+01  0.50000500000E+01  0.51100000000E-03 0. -1.
         11   -1    0    0    0    0 -0.00000000000E+00 -0.00000000000E+00 -0.50000499739E+01  0.50000500000E+01  0.51100000000E-03 0.  1.
         50    1    1    2    0    0 -0.15896116442E-01  0.13406748935E-01 -0.82204054074E-02  0.50000500000E+01  0.50000000000E+01 0. -1.
         50    1    1    2    0    0  0.15896116442E-01 -0.13406748935E-01  0.82204054074E-02  0.50000500000E+01  0.50000000000E+01 0.  1.
</event>
<event>
 4    1  0.5060607E-021  0.5000050E+01  0.7818608E-02  0.2136455E+00
        -11   -1    0    0    0    0  0.00000000000E+00  0.00000000000E+00  0.50000499739E+01  0.50000500000E+01  0.51100000000E-03 0. -1.
         11   -1    0    0    0    0 -0.00000000000E+00 -0.00000000000E+00 -0.50000499739E+01  0.50000500000E+01  0.51100000000E-03 0.  1.
         50    1    1    2    0    0  0.12557869851E-01 -0.18206045591E-01  0.32927661245E-02  0.50000500000E+01  0.50000000000E+01 0.  1.
         50    1    1    2    0    0 -0.12557869851E-01  0.18206045591E-01 -0.32927661245E-02  0.50000500000E+01  0.50000000000E+01 0. -1.
</event>
<event>
 4    1  0.5060607E-021  0.5000050E+01  0.7818608E-02  0.2136455E+00
        -11   -1    0    0    0    0  0.00000000000E+00  0.00000000000E+00  0.50000499739E+01  0.50000500000E+01  0.51100000000E-03 0.  1.
         11   -1    0    0    0    0 -0.00000000000E+00 -0.00000000000E+00 -0.50000499739E+01  0.50000500000E+01  0.51100000000E-03 0. -1.
         50    1    1    2    0    0 -0.80309173097E-02  0.10171824539E-01  0.18221988166E-01  0.50000500000E+01  0.50000000000E+01 0.  0.
         50    1    1    2    0    0  0.80309173097E-02 -0.10171824539E-01 -0.18221988166E-01  0.50000500000E+01  0.50000000000E+01 0.  0.
</event>
<event>
 4    1  0.5060607E-021  0.5000050E+01  0.7818608E-02  0.2136455E+00
        -11   -1    0    0    0    0  0.00000000000E+00  0.00000000000E+00  0.50000499739E+01  0.50000500000E+01  0.51100000000E-03 0.  1.
         11   -1    0    0    0    0 -0.00000000000E+00 -0.00000000000E+00 -0.50000499739E+01  0.50000500000E+01  0.51100000000E-03 0. -1.
         50    1    1    2    0    0 -0.42190340201E-02  0.11983002747E-01  0.18401355849E-01  0.50000500000E+01  0.50000000000E+01 0.  1.
         50    1    1    2    0    0  0.42190340201E-02 -0.11983002747E-01 -0.18401355849E-01  0.50000500000E+01  0.50000000000E+01 0. -1.
</event>
<event>
 4    1  0.5060607E-021  0.5000050E+01  0.7818608E-02  0.2136455E+00
        -11   -1    0    0    0    0  0.00000000000E+00  0.00000000000E+00  0.50000499739E+01  0.50000500000E+01  0.51100000000E-03 0.  1.
         11   -1    0    0    0    0 -0.00000000000E+00 -0.00000000000E+00 -0.50000499739E+01  0.50000500000E+01  0.51100000000E-03 0. -1.
         50    1    1    2    0    0  0.21475918350E-01 -0.59726519749E-02  0.17648964248E-02  0.50000500000E+01  0.50000000000E+01 0.  1.
         50    1    1    2    0    0 -0.21475918350E-01  0.59726519749E-02 -0.17648964248E-02  0.50000500000E+01  0.50000000000E+01 0. -1.
</event>
<event>
 4    1  0.5060607E-021  0.5000050E+01  0.7818608E-02  0.2136455E+00
        -11   -1    0    0    0    0  0.00000000000E+00  0.00000000000E+00  0.50000499739E+01  0.50000500000E+01  0.51100000000E-03 0.  1.
         11   -1    0    0    0    0 -0.00000000000E+00 -0.00000000000E+00 -0.50000499739E+01  0.50000500000E+01  0.51100000000E-03 0. -1.
         50    1    1    2    0    0 -0.96905902657E-02  0.11895061665E-01  0.16266605924E-01  0.50000500000E+01  0.50000000000E+01 0.  1.
         50    1    1    2    0    0  0.96905902657E-02 -0.11895061665E-01 -0.16266605924E-01  0.50000500000E+01  0.50000000000E+01 0. -1.
</event>
<event>
 4    1  0.5060607E-021  0.5000050E+01  0.7818608E-02  0.2136455E+00
        -11   -1    0    0    0    0  0.00000000000E+00  0.00000000000E+00  0.50000499739E+01  0.50000500000E+01  0.51100000000E-03 0.  1.
         11   -1    0    0    0    0 -0.00000000000E+00 -0.00000000000E+00 -0.50000499739E+01  0.50000500000E+01  0.51100000000E-03 0. -1.
         50    1    1    2    0    0  0.11334546078E-01 -0.17082614629E-01  0.89283168984E-02  0.50000500000E+01  0.50000000000E+01 0.  1.
         50    1    1    2    0    0 -0.11334546078E-01  0.17082614629E-01 -0.89283168984E-02  0.50000500000E+01  0.50000000000E+01 0. -1.
</event>
<event>
 4    1  0.5060607E-021  0.5000050E+01  0.7818608E-02  0.2136455E+00
        -11   -1    0    0    0    0  0.00000000000E+00  0.00000000000E+00  0.50000499739E+01  0.50000500000E+01  0.51100000000E-03 0. -1.
         11   -1    0    0    0    0 -0.00000000000E+00 -0.00000000000E+00 -0.50000499739E+01  0.50000500000E+01  0.51100000000E-03 0.  1.
         50    1    1    2    0    0  0.13218477843E-01  0.14265280931E-01  0.11035221043E-01  0.50000500000E+01  0.50000000000E+01 0. -1.
         50    1    1    2    0    0 -0.13218477843E-01 -0.14265280931E-01 -0.11035221043E-01  0.50000500000E+01  0.50000000000E+01 0.  1.
</event>
<event>
 4    1  0.5060607E-021  0.5000050E+01  0.7818608E-02  0.2136455E+00
        -11   -1    0    0    0    0  0.00000000000E+00  0.00000000000E+00  0.50000499739E+01  0.50000500000E+01  0.51100000000E-03 0.  1.
         11   -1    0    0    0    0 -0.00000000000E+00 -0.00000000000E+00 -0.50000499739E+01  0.50000500000E+01  0.51100000000E-03 0. -1.
         50    1    1    2    0    0  0.13004478844E-01  0.14194374833E-02 -0.18134807064E-01  0.50000500000E+01  0.50000000000E+01 0. -1.
         50    1    1    2    0    0 -0.13004478844E-01 -0.14194374833E-02  0.18134807064E-01  0.50000500000E+01  0.50000000000E+01 0.  0.
</event>
<event>
 4    1  0.5060607E-021  0.5000050E+01  0.7818608E-02  0.2136455E+00
        -11   -1    0    0    0    0  0.00000000000E+00  0.00000000000E+00  0.50000499739E+01  0.50000500000E+01  0.51100000000E-03 0.  1.
         11   -1    0    0    0    0 -0.00000000000E+00 -0.00000000000E+00 -0.50000499739E+01  0.50000500000E+01  0.51100000000E-03 0. -1.
         50    1    1    2    0    0 -0.14120998281E-01 -0.72549005639E-03  0.17322631778E-01  0.50000500000E+01  0.50000000000E+01 0.  0.
         50    1    1    2    0    0  0.14120998281E-01  0.72549005639E-03 -0.17322631778E-01  0.50000500000E+01  0.50000000000E+01 0.  0.
</event>
<event>
 4    1  0.5060607E-021  0.5000050E+01  0.7818608E-02  0.2136455E+00
        -11   -1    0    0    0    0  0.00000000000E+00  0.00000000000E+00  0.50000499739E+01  0.50000500000E+01  0.51100000000E-03 0.  1.
         11   -1    0    0    0    0 -0.00000000000E+00 -0.00000000000E+00 -0.50000499739E+01  0.50000500000E+01  0.51100000000E-03 0. -1.
         50    1    1    2    0    0  0.15525727991E-01  0.15905737488E-01 -0.24416767381E-02  0.50000500000E+01  0.50000000000E+01 0. -1.
         50    1    1    2    0    0 -0.15525727991E-01 -0.15905737488E-01  0.24416767381E-02  0.50000500000E+01  0.50000000000E+01 0.  1.
</event>
<event>
 4    1  0.5060607E-021  0.5000050E+01  0.7818608E-02  0.2136455E+00
        -11   -1    0    0    0    0  0.00000000000E+00  0.00000000000E+00  0.50000499739E+01  0.50000500000E+01  0.51100000000E-03 0.  1.
         11   -1    0    0    0    0 -0.00000000000E+00 -0.00000000000E+00 -0.50000499739E+01  0.50000500000E+01  0.51100000000E-03 0. -1.
         50    1    1    2    0    0  0.37779403453E-02 -0.18312140291E-01 -0.12263571449E-01  0.50000500000E+01  0.50000000000E+01 0. -1.
         50    1    1    2    0    0 -0.37779403453E-02  0.18312140291E-01  0.12263571449E-01  0.50000500000E+01  0.50000000000E+01 0.  1.
</event>
<event>
 4    1  0.5060607E-021  0.5000050E+01  0.7818608E-02  0.2136455E+00
        -11   -1    0    0    0    0  0.00000000000E+00  0.00000000000E+00  0.50000499739E+01  0.50000500000E+01  0.51100000000E-03 0.  1.
         11   -1    0    0    0    0 -0.00000000000E+00 -0.00000000000E+00 -0.50000499739E+01  0.50000500000E+01  0.51100000000E-03 0. -1.
         50    1    1    2    0    0  0.12348042740E-01 -0.92397953853E-02  0.16191186545E-01  0.50000500000E+01  0.50000000000E+01 0.  0.
         50    1    1    2    0    0 -0.12348042740E-01  0.92397953853E-02 -0.16191186545E-01  0.50000500000E+01  0.50000000000E+01 0.  0.
</event>
<event>
 4    1  0.5060607E-021  0.5000050E+01  0.7818608E-02  0.2136455E+00
        -11   -1    0    0    0    0  0.00000000000E+00  0.00000000000E+00  0.50000499739E+01  0.50000500000E+01  0.51100000000E-03 0.  1.
         11   -1    0    0    0    0 -0.00000000000E+00 -0.00000000000E+00 -0.50000499739E+01  0.50000500000E+01  0.51100000000E-03 0. -1.
         50    1    1    2    0    0  0.20975143711E-02  0.13355888597E-01 -0.17810760041E-01  0.50000500000E+01  0.50000000000E+01 0. -1.
         50    1    1    2    0    0 -0.20975143711E-02 -0.13355888597E-01  0.17810760041E-01  0.50000500000E+01  0.50000000000E+01 0.  0.
</event>
<event>
 4    1  0.5060607E-021  0.5000050E+01  0.7818608E-02  0.2136455E+00
        -11   -1    0    0    0    0  0.00000000000E+00  0.00000000000E+00  0.50000499739E+01  0.50000500000E+01  0.51100000000E-03 0. -1.
         11   -1    0    0    0    0 -0.00000000000E+00 -0.00000000000E+00 -0.50000499739E+01  0.50000500000E+01  0.51100000000E-03 0.  1.
         50    1    1    2    0    0 -0.79732080159E-02  0.20619060168E-01  0.33592873831E-02  0.50000500000E+01  0.50000000000E+01 0. -1.
         50    1    1    2    0    0  0.79732080159E-02 -0.20619060168E-01 -0.33592873831E-02  0.50000500000E+01  0.50000000000E+01 0.  1.
</event>
<event>
 4    1  0.5060607E-021  0.5000050E+01  0.7818608E-02  0.2136455E+00
        -11   -1    0    0    0    0  0.00000000000E+00  0.00000000000E+00  0.50000499739E+01  0.50000500000E+01  0.51100000000E-03 0. -1.
         11   -1    0    0    0    0 -0.00000000000E+00 -0.00000000000E+00 -0.50000499739E+01  0.50000500000E+01  0.51100000000E-03 0.  1.
         50    1    1    2    0    0 -0.47591629785E-02 -0.12340926668E-01  0.18029265008E-01  0.50000500000E+01  0.50000000000E+01 0. -1.
         50    1    1    2    0    0  0.47591629785E-02  0.12340926668E-01 -0.18029265008E-01  0.50000500000E+01  0.50000000000E+01 0.  1.
</event>
<event>
 4    1  0.5060607E-021  0.5000050E+01  0.7818608E-02  0.2136455E+00
        -11   -1    0    0    0    0  0.00000000000E+00  0.00000000000E+00  0.50000499739E+01  0.50000500000E+01  0.51100000000E-03 0.  1.
         11   -1    0    0    0    0 -0.00000000000E+00 -0.00000000000E+00 -0.50000499739E+01  0.50000500000E+01  0.51100000000E-03 0. -1.
         50    1    1    2    0    0  0.96624201237E-02  0.19481177560E-01  0.52080570488E-02  0.50000500000E+01  0.50000000000E+01 0. -1.
         50    1    1    2    0    0 -0.96624201237E-02 -0.19481177560E-01 -0.52080570488E-02  0.50000500000E+01  0.50000000000E+01 0.  0.
</event>
<event>
 4    1  0.5060607E-021  0.5000050E+01  0.7818608E-02  0.2136455E+00
        -11   -1    0    0    0    0  0.00000000000E+00  0.00000000000E+00  0.50000499739E+01  0.50000500000E+01  0.51100000000E-03 0. -1.
         11   -1    0    0    0    0 -0.00000000000E+00 -0.00000000000E+00 -0.50000499739E+01  0.50000500000E+01  0.51100000000E-03 0.  1.
         50    1    1    2    0    0 -0.41115162283E-02 -0.21843579901E-01 -0.24404817966E-02  0.50000500000E+01  0.50000000000E+01 0. -1.
         50    1    1    2    0    0  0.41115162283E-02  0.21843579901E-01  0.24404817966E-02  0.50000500000E+01  0.50000000000E+01 0.  0.
</event>
<event>
 4    1  0.5060607E-021  0.5000050E+01  0.7818608E-02  0.2136455E+00
        -11   -1    0    0    0    0  0.00000000000E+00  0.00000000000E+00  0.50000499739E+01  0.50000500000E+01  0.51100000000E-03 0.  1.
         11   -1    0    0    0    0 -0.00000000000E+00 -0.00000000000E+00 -0.50000499739E+01  0.50000500000E+01  0.51100000000E-03 0. -1.
         50    1    1    2    0    0  0.12191193586E-01  0.82357085096E-02  0.16838954964E-01  0.50000500000E+01  0.50000000000E+01 0.  1.
         50    1    1    2    0    0 -0.12191193586E-01 -0.82357085096E-02 -0.16838954964E-01  0.50000500000E+01  0.50000000000E+01 0. -1.
</event>
<event>
 4    1  0.5060607E-021  0.5000050E+01  0.7818608E-02  0.2136455E+00
        -11   -1    0    0    0    0  0.00000000000E+00  0.00000000000E+00  0.50000499739E+01  0.50000500000E+01  0.51100000000E-03 0.  1.
         11   -1    0    0    0    0 -0.00000000000E+00 -0.00000000000E+00 -0.50000499739E+01  0.50000500000E+01  0.51100000000E-03 0. -1.
         50    1    1    2    0    0 -0.89979559980E-02  0.19662423857E-01 -0.56945918132E-02  0.50000500000E+01  0.50000000000E+01 0.  0.
         50    1    1    2    0    0  0.89979559980E-02 -0.19662423857E-01  0.56945918132E-02  0.50000500000E+01  0.50000000000E+01 0. -1.
</event>
<event>
 4    1  0.5060607E-021  0.5000050E+01  0.7818608E-02  0.2136455E+00
        -11   -1    0    0    0    0  0.00000000000E+00  0.00000000000E+00  0.50000499739E+01  0.50000500000E+01  0.51100000000E-03 0. -1.
         11   -1    0    0    0    0 -0.00000000000E+00 -0.00000000000E+00 -0.50000499739E+01  0.50000500000E+01  0.51100000000E-03 0.  1.
         50    1    1    2    0    0  0.25458456247E-02 -0.14441363171E-01  0.16881001150E-01  0.50000500000E+01  0.50000000000E+01 0. -1.
         50    1    1    2    0    0 -0.25458456247E-02  0.14441363171E-01 -0.16881001150E-01  0.50000500000E+01  0.50000000000E+01 0.  1.
</event>
<event>
 4    1  0.5060607E-021  0.5000050E+01  0.7818608E-02  0.2136455E+00
        -11   -1    0    0    0    0  0.00000000000E+00  0.00000000000E+00  0.50000499739E+01  0.50000500000E+01  0.51100000000E-03 0.  1.
         11   -1    0    0    0    0 -0.00000000000E+00 -0.00000000000E+00 -0.50000499739E+01  0.50000500000E+01  0.51100000000E-03 0. -1.
         50    1    1    2    0    0 -0.11915742889E-01  0.18209365130E-01 -0.51416527444E-02  0.50000500000E+01  0.50000000000E+01 0.  1.
         50    1    1    2    0    0  0.11915742889E-01 -0.18209365130E-01  0.51416527444E-02  0.50000500000E+01  0.50000000000E+01 0.  0.
</event>
<event>
 4    1  0.5060607E-021  0.5000050E+01  0.7818608E-02  0.2136455E+00
        -11   -1    0    0    0    0  0.00000000000E+00  0.00000000000E+00  0.50000499739E+01  0.50000500000E+01  0.51100000000E-03 0. -1.
         11   -1    0    0    0    0 -0.00000000000E+00 -0.00000000000E+00 -0.50000499739E+01  0.50000500000E+01  0.51100000000E-03 0.  1.
         50    1    1    2    0    0  0.96274455293E-02  0.36611649706E-02  0.19847182763E-01  0.50000500000E+01  0.50000000000E+01 0.  0.
         50    1    1    2    0    0 -0.96274455293E-02 -0.36611649706E-02 -0.19847182763E-01  0.50000500000E+01  0.50000000000E+01 0.  1.
</event>
<event>
 4    1  0.5060607E-021  0.5000050E+01  0.7818608E-02  0.2136455E+00
        -11   -1    0    0    0    0  0.00000000000E+00  0.00000000000E+00  0.50000499739E+01  0.50000500000E+01  0.51100000000E-03 0. -1.
         11   -1    0    0    0    0 -0.00000000000E+00 -0.00000000000E+00 -0.50000499739E+01  0.50000500000E+01  0.51100000000E-03 0.  1.
         50    1    1    2    0    0 -0.15022557492E-02  0.62457697953E-02  0.21418125206E-01  0.50000500000E+01  0.50000000000E+01 0. -1.
         50    1    1    2    0    0  0.15022557492E-02 -0.62457697953E-02 -0.21418125206E-01  0.50000500000E+01  0.50000000000E+01 0.  0.
</event>
<event>
 4    1  0.5060607E-021  0.5000050E+01  0.7818608E-02  0.2136455E+00
        -11   -1    0    0    0    0  0.00000000000E+00  0.00000000000E+00  0.50000499739E+01  0.50000500000E+01  0.51100000000E-03 0. -1.
         11   -1    0    0    0    0 -0.00000000000E+00 -0.00000000000E+00 -0.50000499739E+01  0.50000500000E+01  0.51100000000E-03 0.  1.
         50    1    1    2    0    0 -0.14861970089E-01  0.66193906041E-02  0.15339752706E-01  0.50000500000E+01  0.50000000000E+01 0. -1.
         50    1    1    2    0    0  0.14861970089E-01 -0.66193906041E-02 -0.15339752706E-01  0.50000500000E+01  0.50000000000E+01 0.  0.
</event>
<event>
 4    1  0.5060607E-021  0.5000050E+01  0.7818608E-02  0.2136455E+00
        -11   -1    0    0    0    0  0.00000000000E+00  0.00000000000E+00  0.50000499739E+01  0.50000500000E+01  0.51100000000E-03 0.  1.
         11   -1    0    0    0    0 -0.00000000000E+00 -0.00000000000E+00 -0.50000499739E+01  0.50000500000E+01  0.51100000000E-03 0. -1.
         50    1    1    2    0    0 -0.19088743795E-01  0.74931093194E-02  0.89149129573E-02  0.50000500000E+01  0.50000000000E+01 0.  1.
         50    1    1    2    0    0  0.19088743795E-01 -0.74931093194E-02 -0.89149129573E-02  0.50000500000E+01  0.50000000000E+01 0. -1.
</event>
<event>
 4    1  0.5060607E-021  0.5000050E+01  0.7818608E-02  0.2136455E+00
        -11   -1    0    0    0    0  0.00000000000E+00  0.00000000000E+00  0.50000499739E+01  0.50000500000E+01  0.51100000000E-03 0. -1.
         11   -1    0    0    0    0 -0.00000000000E+00 -0.00000000000E+00 -0.50000499739E+01  0.50000500000E+01  0.51100000000E-03 0.  1.
         50    1    1    2    0    0 -0.27507076765E-02 -0.89113963800E-02  0.20322970301E-01  0.50000500000E+01  0.50000000000E+01 0. -1.
         50    1    1    2    0    0  0.27507076765E-02  0.89113963800E-02 -0.20322970301E-01  0.50000500000E+01  0.50000000000E+01 0.  0.
</event>
<event>
 4    1  0.5060607E-021  0.5000050E+01  0.7818608E-02  0.2136455E+00
        -11   -1    0    0    0    0  0.00000000000E+00  0.00000000000E+00  0.50000499739E+01  0.50000500000E+01  0.51100000000E-03 0.  1.
         11   -1    0    0    0    0 -0.00000000000E+00 -0.00000000000E+00 -0.50000499739E+01  0.50000500000E+01  0.51100000000E-03 0. -1.
         50    1    1    2    0    0  0.56349685736E-02  0.21446164138E-01 -0.28829972133E-02  0.50000500000E+01  0.50000000000E+01 0. -1.
         50    1    1    2    0    0 -0.56349685736E-02 -0.21446164138E-01  0.28829972133E-02  0.50000500000E+01  0.50000000000E+01 0.  1.
</event>
<event>
 4    1  0.5060607E-021  0.5000050E+01  0.7818608E-02  0.2136455E+00
        -11   -1    0    0    0    0  0.00000000000E+00  0.00000000000E+00  0.50000499739E+01  0.50000500000E+01  0.51100000000E-03 0.  1.
         11   -1    0    0    0    0 -0.00000000000E+00 -0.00000000000E+00 -0.50000499739E+01  0.50000500000E+01  0.51100000000E-03 0. -1.
         50    1    1    2    0    0 -0.15099203674E-01  0.16488145455E-01 -0.39699859019E-03  0.50000500000E+01  0.50000000000E+01 0.  1.
         50    1    1    2    0    0  0.15099203674E-01 -0.16488145455E-01  0.39699859019E-03  0.50000500000E+01  0.50000000000E+01 0. -1.
</event>
<event>
 4    1  0.5060607E-021  0.5000050E+01  0.7818608E-02  0.2136455E+00
        -11   -1    0    0    0    0  0.00000000000E+00  0.00000000000E+00  0.50000499739E+01  0.50000500000E+01  0.51100000000E-03 0.  1.
         11   -1    0    0    0    0 -0.00000000000E+00 -0.00000000000E+00 -0.50000499739E+01  0.50000500000E+01  0.51100000000E-03 0. -1.
         50    1    1    2    0    0  0.15805780871E-01  0.15812886142E-01 -0.36389960270E-03  0.50000500000E+01  0.50000000000E+01 0.  0.
         50    1    1    2    0    0 -0.15805780871E-01 -0.15812886142E-01  0.36389960270E-03  0.50000500000E+01  0.50000000000E+01 0. -1.
</event>
<event>
 4    1  0.5060607E-021  0.5000050E+01  0.7818608E-02  0.2136455E+00
        -11   -1    0    0    0    0  0.00000000000E+00  0.00000000000E+00  0.50000499739E+01  0.50000500000E+01  0.51100000000E-03 0. -1.
         11   -1    0    0    0    0 -0.00000000000E+00 -0.00000000000E+00 -0.50000499739E+01  0.50000500000E+01  0.51100000000E-03 0.  1.
         50    1    1    2    0    0  0.21032768675E-01  0.54348550544E-02 -0.52997634288E-02  0.50000500000E+01  0.50000000000E+01 0. -1.
         50    1    1    2    0    0 -0.21032768675E-01 -0.54348550544E-02  0.52997634288E-02  0.50000500000E+01  0.50000000000E+01 0.  0.
</event>
<event>
 4    1  0.5060607E-021  0.5000050E+01  0.7818608E-02  0.2136455E+00
        -11   -1    0    0    0    0  0.00000000000E+00  0.00000000000E+00  0.50000499739E+01  0.50000500000E+01  0.51100000000E-03 0.  1.
         11   -1    0    0    0    0 -0.00000000000E+00 -0.00000000000E+00 -0.50000499739E+01  0.50000500000E+01  0.51100000000E-03 0. -1.
         50    1    1    2    0    0  0.15477795980E-01 -0.66884388938E-02  0.14686902899E-01  0.50000500000E+01  0.50000000000E+01 0.  1.
         50    1    1    2    0    0 -0.15477795980E-01  0.66884388938E-02 -0.14686902899E-01  0.50000500000E+01  0.50000000000E+01 0. -1.
</event>
<event>
 4    1  0.5060607E-021  0.5000050E+01  0.7818608E-02  0.2136455E+00
        -11   -1    0    0    0    0  0.00000000000E+00  0.00000000000E+00  0.50000499739E+01  0.50000500000E+01  0.51100000000E-03 0. -1.
         11   -1    0    0    0    0 -0.00000000000E+00 -0.00000000000E+00 -0.50000499739E+01  0.50000500000E+01  0.51100000000E-03 0.  1.
         50    1    1    2    0    0  0.15499567319E-01 -0.14073621300E-01 -0.78548772375E-02  0.50000500000E+01  0.50000000000E+01 0. -1.
         50    1    1    2    0    0 -0.15499567319E-01  0.14073621300E-01  0.78548772375E-02  0.50000500000E+01  0.50000000000E+01 0. -1.
</event>
<event>
 4    1  0.5060607E-021  0.5000050E+01  0.7818608E-02  0.2136455E+00
        -11   -1    0    0    0    0  0.00000000000E+00  0.00000000000E+00  0.50000499739E+01  0.50000500000E+01  0.51100000000E-03 0. -1.
         11   -1    0    0    0    0 -0.00000000000E+00 -0.00000000000E+00 -0.50000499739E+01  0.50000500000E+01  0.51100000000E-03 0.  1.
         50    1    1    2    0    0  0.13109002274E-01  0.39551279328E-02 -0.17678051997E-01  0.50000500000E+01  0.50000000000E+01 0. -1.
         50    1    1    2    0    0 -0.13109002274E-01 -0.39551279328E-02  0.17678051997E-01  0.50000500000E+01  0.50000000000E+01 0.  0.
</event>
<event>
 4    1  0.5060607E-021  0.5000050E+01  0.7818608E-02  0.2136455E+00
        -11   -1    0    0    0    0  0.00000000000E+00  0.00000000000E+00  0.50000499739E+01  0.50000500000E+01  0.51100000000E-03 0.  1.
         11   -1    0    0    0    0 -0.00000000000E+00 -0.00000000000E+00 -0.50000499739E+01  0.50000500000E+01  0.51100000000E-03 0. -1.
         50    1    1    2    0    0  0.12462245175E-02  0.15685277046E-01  0.15887778587E-01  0.50000500000E+01  0.50000000000E+01 0.  0.
         50    1    1    2    0    0 -0.12462245175E-02 -0.15685277046E-01 -0.15887778587E-01  0.50000500000E+01  0.50000000000E+01 0.  1.
</event>
<event>
 4    1  0.5060607E-021  0.5000050E+01  0.7818608E-02  0.2136455E+00
        -11   -1    0    0    0    0  0.00000000000E+00  0.00000000000E+00  0.50000499739E+01  0.50000500000E+01  0.51100000000E-03 0. -1.
         11   -1    0    0    0    0 -0.00000000000E+00 -0.00000000000E+00 -0.50000499739E+01  0.50000500000E+01  0.51100000000E-03 0.  1.
         50    1    1    2    0    0  0.10686478463E-01 -0.17458866712E-01 -0.89994250473E-02  0.50000500000E+01  0.50000000000E+01 0.  1.
         50    1    1    2    0    0 -0.10686478463E-01  0.17458866712E-01  0.89994250473E-02  0.50000500000E+01  0.50000000000E+01 0. -1.
</event>
<event>
 4    1  0.5060607E-021  0.5000050E+01  0.7818608E-02  0.2136455E+00
        -11   -1    0    0    0    0  0.00000000000E+00  0.00000000000E+00  0.50000499739E+01  0.50000500000E+01  0.51100000000E-03 0. -1.
         11   -1    0    0    0    0 -0.00000000000E+00 -0.00000000000E+00 -0.50000499739E+01  0.50000500000E+01  0.51100000000E-03 0.  1.
         50    1    1    2    0    0  0.17770530740E-01 -0.55195505554E-02  0.12399407199E-01  0.50000500000E+01  0.50000000000E+01 0. -1.
         50    1    1    2    0    0 -0.17770530740E-01  0.55195505554E-02 -0.12399407199E-01  0.50000500000E+01  0.50000000000E+01 0.  1.
</event>
<event>
 4    1  0.5060607E-021  0.5000050E+01  0.7818608E-02  0.2136455E+00
        -11   -1    0    0    0    0  0.00000000000E+00  0.00000000000E+00  0.50000499739E+01  0.50000500000E+01  0.51100000000E-03 0.  1.
         11   -1    0    0    0    0 -0.00000000000E+00 -0.00000000000E+00 -0.50000499739E+01  0.50000500000E+01  0.51100000000E-03 0. -1.
         50    1    1    2    0    0  0.22261022536E-01  0.10280541661E-02  0.18418686946E-02  0.50000500000E+01  0.50000000000E+01 0. -1.
         50    1    1    2    0    0 -0.22261022536E-01 -0.10280541661E-02 -0.18418686946E-02  0.50000500000E+01  0.50000000000E+01 0.  0.
</event>
<event>
 4    1  0.5060607E-021  0.5000050E+01  0.7818608E-02  0.2136455E+00
        -11   -1    0    0    0    0  0.00000000000E+00  0.00000000000E+00  0.50000499739E+01  0.50000500000E+01  0.51100000000E-03 0. -1.
         11   -1    0    0    0    0 -0.00000000000E+00 -0.00000000000E+00 -0.50000499739E+01  0.50000500000E+01  0.51100000000E-03 0.  1.
         50    1    1    2    0    0 -0.95747969897E-02  0.10159319104E-01 -0.17467512643E-01  0.50000500000E+01  0.50000000000E+01 0.  1.
         50    1    1    2    0    0  0.95747969897E-02 -0.10159319104E-01  0.17467512643E-01  0.50000500000E+01  0.50000000000E+01 0. -1.
</event>
<event>
 4    1  0.5060607E-021  0.5000050E+01  0.7818608E-02  0.2136455E+00
        -11   -1    0    0    0    0  0.00000000000E+00  0.00000000000E+00  0.50000499739E+01  0.50000500000E+01  0.51100000000E-03 0. -1.
         11   -1    0    0    0    0 -0.00000000000E+00 -0.00000000000E+00 -0.50000499739E+01  0.50000500000E+01  0.51100000000E-03 0.  1.
         50    1    1    2    0    0 -0.19802649703E-01 -0.28875253124E-02 -0.99759592177E-02  0.50000500000E+01  0.50000000000E+01 0.  1.
         50    1    1    2    0    0  0.19802649703E-01  0.28875253124E-02  0.99759592177E-02  0.50000500000E+01  0.50000000000E+01 0. -1.
</event>
<event>
 4    1  0.5060607E-021  0.5000050E+01  0.7818608E-02  0.2136455E+00
        -11   -1    0    0    0    0  0.00000000000E+00  0.00000000000E+00  0.50000499739E+01  0.50000500000E+01  0.51100000000E-03 0. -1.
         11   -1    0    0    0    0 -0.00000000000E+00 -0.00000000000E+00 -0.50000499739E+01  0.50000500000E+01  0.51100000000E-03 0.  1.
         50    1    1    2    0    0  0.22156749524E-01  0.27758497738E-02  0.11728634085E-02  0.50000500000E+01  0.50000000000E+01 0.  0.
         50    1    1    2    0    0 -0.22156749524E-01 -0.27758497738E-02 -0.11728634085E-02  0.50000500000E+01  0.50000000000E+01 0. -1.
</event>
<event>
 4    1  0.5060607E-021  0.5000050E+01  0.7818608E-02  0.2136455E+00
        -11   -1    0    0    0    0  0.00000000000E+00  0.00000000000E+00  0.50000499739E+01  0.50000500000E+01  0.51100000000E-03 0.  1.
         11   -1    0    0    0    0 -0.00000000000E+00 -0.00000000000E+00 -0.50000499739E+01  0.50000500000E+01  0.51100000000E-03 0. -1.
         50    1    1    2    0    0  0.85485259818E-02  0.61955262096E-02 -0.19711434715E-01  0.50000500000E+01  0.50000000000E+01 0.  0.
         50    1    1    2    0    0 -0.85485259818E-02 -0.61955262096E-02  0.19711434715E-01  0.50000500000E+01  0.50000000000E+01 0.  0.
</event>
<event>
 4    1  0.5060607E-021  0.5000050E+01  0.7818608E-02  0.2136455E+00
        -11   -1    0    0    0    0  0.00000000000E+00  0.00000000000E+00  0.50000499739E+01  0.50000500000E+01  0.51100000000E-03 0. -1.
         11   -1    0    0    0    0 -0.00000000000E+00 -0.00000000000E+00 -0.50000499739E+01  0.50000500000E+01  0.51100000000E-03 0.  1.
         50    1    1    2    0    0 -0.18107000067E-01  0.35437210267E-02  0.12632540910E-01  0.50000500000E+01  0.50000000000E+01 0.  0.
         50    1    1    2    0    0  0.18107000067E-01 -0.35437210267E-02 -0.12632540910E-01  0.50000500000E+01  0.50000000000E+01 0.  0.
</event>
<event>
 4    1  0.5060607E-021  0.5000050E+01  0.7818608E-02  0.2136455E+00
        -11   -1    0    0    0    0  0.00000000000E+00  0.00000000000E+00  0.50000499739E+01  0.50000500000E+01  0.51100000000E-03 0.  1.
         11   -1    0    0    0    0 -0.00000000000E+00 -0.00000000000E+00 -0.50000499739E+01  0.50000500000E+01  0.51100000000E-03 0. -1.
         50    1    1    2    0    0  0.70193935298E-02 -0.19386608163E-01  0.86539030742E-02  0.50000500000E+01  0.50000000000E+01 0.  1.
         50    1    1    2    0    0 -0.70193935298E-02  0.19386608163E-01 -0.86539030742E-02  0.50000500000E+01  0.50000000000E+01 0. -1.
</event>
<event>
 4    1  0.5060607E-021  0.5000050E+01  0.7818608E-02  0.2136455E+00
        -11   -1    0    0    0    0  0.00000000000E+00  0.00000000000E+00  0.50000499739E+01  0.50000500000E+01  0.51100000000E-03 0.  1.
         11   -1    0    0    0    0 -0.00000000000E+00 -0.00000000000E+00 -0.50000499739E+01  0.50000500000E+01  0.51100000000E-03 0. -1.
         50    1    1    2    0    0 -0.13931618316E-01  0.95614839231E-02  0.14645495426E-01  0.50000500000E+01  0.50000000000E+01 0.  1.
         50    1    1    2    0    0  0.13931618316E-01 -0.95614839231E-02 -0.14645495426E-01  0.50000500000E+01  0.50000000000E+01 0. -1.
</event>
<event>
 4    1  0.5060607E-021  0.5000050E+01  0.7818608E-02  0.2136455E+00
        -11   -1    0    0    0    0  0.00000000000E+00  0.00000000000E+00  0.50000499739E+01  0.50000500000E+01  0.51100000000E-03 0. -1.
         11   -1    0    0    0    0 -0.00000000000E+00 -0.00000000000E+00 -0.50000499739E+01  0.50000500000E+01  0.51100000000E-03 0.  1.
         50    1    1    2    0    0  0.36254401833E-02  0.15116068460E-01  0.16073679037E-01  0.50000500000E+01  0.50000000000E+01 0.  0.
         50    1    1    2    0    0 -0.36254401833E-02 -0.15116068460E-01 -0.16073679037E-01  0.50000500000E+01  0.50000000000E+01 0.  1.
</event>
<event>
 4    1  0.5060607E-021  0.5000050E+01  0.7818608E-02  0.2136455E+00
        -11   -1    0    0    0    0  0.00000000000E+00  0.00000000000E+00  0.50000499739E+01  0.50000500000E+01  0.51100000000E-03 0. -1.
         11   -1    0    0    0    0 -0.00000000000E+00 -0.00000000000E+00 -0.50000499739E+01  0.50000500000E+01  0.51100000000E-03 0.  1.
         50    1    1    2    0    0 -0.67444444662E-02 -0.21316636075E-01  0.34058082534E-03  0.50000500000E+01  0.50000000000E+01 0. -1.
         50    1    1    2    0    0  0.67444444662E-02  0.21316636075E-01 -0.34058082534E-03  0.50000500000E+01  0.50000000000E+01 0.  0.
</event>
<event>
 4    1  0.5060607E-021  0.5000050E+01  0.7818608E-02  0.2136455E+00
        -11   -1    0    0    0    0  0.00000000000E+00  0.00000000000E+00  0.50000499739E+01  0.50000500000E+01  0.51100000000E-03 0. -1.
         11   -1    0    0    0    0 -0.00000000000E+00 -0.00000000000E+00 -0.50000499739E+01  0.50000500000E+01  0.51100000000E-03 0.  1.
         50    1    1    2    0    0  0.19071316812E-01 -0.91921109659E-02  0.71966986206E-02  0.50000500000E+01  0.50000000000E+01 0. -1.
         50    1    1    2    0    0 -0.19071316812E-01  0.91921109659E-02 -0.71966986206E-02  0.50000500000E+01  0.50000000000E+01 0.  1.
</event>
<event>
 4    1  0.5060607E-021  0.5000050E+01  0.7818608E-02  0.2136455E+00
        -11   -1    0    0    0    0  0.00000000000E+00  0.00000000000E+00  0.50000499739E+01  0.50000500000E+01  0.51100000000E-03 0. -1.
         11   -1    0    0    0    0 -0.00000000000E+00 -0.00000000000E+00 -0.50000499739E+01  0.50000500000E+01  0.51100000000E-03 0.  1.
         50    1    1    2    0    0  0.13346069865E-01  0.92537419005E-02  0.15370529594E-01  0.50000500000E+01  0.50000000000E+01 0.  0.
         50    1    1    2    0    0 -0.13346069865E-01 -0.92537419005E-02 -0.15370529594E-01  0.50000500000E+01  0.50000000000E+01 0. -1.
</event>
<event>
 4    1  0.5060607E-021  0.5000050E+01  0.7818608E-02  0.2136455E+00
        -11   -1    0    0    0    0  0.00000000000E+00  0.00000000000E+00  0.50000499739E+01  0.50000500000E+01  0.51100000000E-03 0.  1.
         11   -1    0    0    0    0 -0.00000000000E+00 -0.00000000000E+00 -0.50000499739E+01  0.50000500000E+01  0.51100000000E-03 0. -1.
         50    1    1    2    0    0 -0.17286746629E-01 -0.70079047463E-02  0.12331267658E-01  0.50000500000E+01  0.50000000000E+01 0.  1.
         50    1    1    2    0    0  0.17286746629E-01  0.70079047463E-02 -0.12331267658E-01  0.50000500000E+01  0.50000000000E+01 0. -1.
</event>
<event>
 4    1  0.5060607E-021  0.5000050E+01  0.7818608E-02  0.2136455E+00
        -11   -1    0    0    0    0  0.00000000000E+00  0.00000000000E+00  0.50000499739E+01  0.50000500000E+01  0.51100000000E-03 0. -1.
         11   -1    0    0    0    0 -0.00000000000E+00 -0.00000000000E+00 -0.50000499739E+01  0.50000500000E+01  0.51100000000E-03 0.  1.
         50    1    1    2    0    0  0.99942753659E-02  0.11372320143E-01 -0.16455615894E-01  0.50000500000E+01  0.50000000000E+01 0.  0.
         50    1    1    2    0    0 -0.99942753659E-02 -0.11372320143E-01  0.16455615894E-01  0.50000500000E+01  0.50000000000E+01 0.  0.
</event>
<event>
 4    1  0.5060607E-021  0.5000050E+01  0.7818608E-02  0.2136455E+00
        -11   -1    0    0    0    0  0.00000000000E+00  0.00000000000E+00  0.50000499739E+01  0.50000500000E+01  0.51100000000E-03 0. -1.
         11   -1    0    0    0    0 -0.00000000000E+00 -0.00000000000E+00 -0.50000499739E+01  0.50000500000E+01  0.51100000000E-03 0.  1.
         50    1    1    2    0    0 -0.99119417789E-02  0.19876398265E-01  0.25854791013E-02  0.50000500000E+01  0.50000000000E+01 0.  0.
         50    1    1    2    0    0  0.99119417789E-02 -0.19876398265E-01 -0.25854791013E-02  0.50000500000E+01  0.50000000000E+01 0. -1.
</event>
<event>
 4    1  0.5060607E-021  0.5000050E+01  0.7818608E-02  0.2136455E+00
        -11   -1    0    0    0    0  0.00000000000E+00  0.00000000000E+00  0.50000499739E+01  0.50000500000E+01  0.51100000000E-03 0.  1.
         11   -1    0    0    0    0 -0.00000000000E+00 -0.00000000000E+00 -0.50000499739E+01  0.50000500000E+01  0.51100000000E-03 0. -1.
         50    1    1    2    0    0  0.15316258634E-01  0.16203181905E-01 -0.16945847811E-02  0.50000500000E+01  0.50000000000E+01 0.  1.
         50    1    1    2    0    0 -0.15316258634E-01 -0.16203181905E-01  0.16945847811E-02  0.50000500000E+01  0.50000000000E+01 0.  0.
</event>
<event>
 4    1  0.5060607E-021  0.5000050E+01  0.7818608E-02  0.2136455E+00
        -11   -1    0    0    0    0  0.00000000000E+00  0.00000000000E+00  0.50000499739E+01  0.50000500000E+01  0.51100000000E-03 0. -1.
         11   -1    0    0    0    0 -0.00000000000E+00 -0.00000000000E+00 -0.50000499739E+01  0.50000500000E+01  0.51100000000E-03 0.  1.
         50    1    1    2    0    0 -0.13009908355E-01  0.18478506757E-02  0.18092269965E-01  0.50000500000E+01  0.50000000000E+01 0. -1.
         50    1    1    2    0    0  0.13009908355E-01 -0.18478506757E-02 -0.18092269965E-01  0.50000500000E+01  0.50000000000E+01 0.  0.
</event>
<event>
 4    1  0.5060607E-021  0.5000050E+01  0.7818608E-02  0.2136455E+00
        -11   -1    0    0    0    0  0.00000000000E+00  0.00000000000E+00  0.50000499739E+01  0.50000500000E+01  0.51100000000E-03 0.  1.
         11   -1    0    0    0    0 -0.00000000000E+00 -0.00000000000E+00 -0.50000499739E+01  0.50000500000E+01  0.51100000000E-03 0. -1.
         50    1    1    2    0    0 -0.15236100682E-01  0.14519929940E-01  0.75521765424E-02  0.50000500000E+01  0.50000000000E+01 0.  1.
         50    1    1    2    0    0  0.15236100682E-01 -0.14519929940E-01 -0.75521765424E-02  0.50000500000E+01  0.50000000000E+01 0. -1.
</event>
<event>
 4    1  0.5060607E-021  0.5000050E+01  0.7818608E-02  0.2136455E+00
        -11   -1    0    0    0    0  0.00000000000E+00  0.00000000000E+00  0.50000499739E+01  0.50000500000E+01  0.51100000000E-03 0. -1.
         11   -1    0    0    0    0 -0.00000000000E+00 -0.00000000000E+00 -0.50000499739E+01  0.50000500000E+01  0.51100000000E-03 0.  1.
         50    1    1    2    0    0  0.51820247317E-02  0.96378105003E-02  0.19500300727E-01  0.50000500000E+01  0.50000000000E+01 0. -1.
         50    1    1    2    0    0 -0.51820247317E-02 -0.96378105003E-02 -0.19500300727E-01  0.50000500000E+01  0.50000000000E+01 0.  1.
</event>
<event>
 4    1  0.5060607E-021  0.5000050E+01  0.7818608E-02  0.2136455E+00
        -11   -1    0    0    0    0  0.00000000000E+00  0.00000000000E+00  0.50000499739E+01  0.50000500000E+01  0.51100000000E-03 0.  1.
         11   -1    0    0    0    0 -0.00000000000E+00 -0.00000000000E+00 -0.50000499739E+01  0.50000500000E+01  0.51100000000E-03 0. -1.
         50    1    1    2    0    0  0.41044491320E-02  0.21980650036E-01  0.83793248819E-04  0.50000500000E+01  0.50000000000E+01 0. -1.
         50    1    1    2    0    0 -0.41044491320E-02 -0.21980650036E-01 -0.83793248820E-04  0.50000500000E+01  0.50000000000E+01 0.  1.
</event>
<event>
 4    1  0.5060607E-021  0.5000050E+01  0.7818608E-02  0.2136455E+00
        -11   -1    0    0    0    0  0.00000000000E+00  0.00000000000E+00  0.50000499739E+01  0.50000500000E+01  0.51100000000E-03 0. -1.
         11   -1    0    0    0    0 -0.00000000000E+00 -0.00000000000E+00 -0.50000499739E+01  0.50000500000E+01  0.51100000000E-03 0.  1.
         50    1    1    2    0    0  0.58049604906E-02 -0.18773810285E-01  0.10670003800E-01  0.50000500000E+01  0.50000000000E+01 0.  1.
         50    1    1    2    0    0 -0.58049604906E-02  0.18773810285E-01 -0.10670003800E-01  0.50000500000E+01  0.50000000000E+01 0.  0.
</event>
<event>
 4    1  0.5060607E-021  0.5000050E+01  0.7818608E-02  0.2136455E+00
        -11   -1    0    0    0    0  0.00000000000E+00  0.00000000000E+00  0.50000499739E+01  0.50000500000E+01  0.51100000000E-03 0.  1.
         11   -1    0    0    0    0 -0.00000000000E+00 -0.00000000000E+00 -0.50000499739E+01  0.50000500000E+01  0.51100000000E-03 0. -1.
         50    1    1    2    0    0  0.25376516698E-02  0.21838194914E-01  0.40811844955E-02  0.50000500000E+01  0.50000000000E+01 0.  1.
         50    1    1    2    0    0 -0.25376516698E-02 -0.21838194914E-01 -0.40811844955E-02  0.50000500000E+01  0.50000000000E+01 0.  0.
</event>
<event>
 4    1  0.5060607E-021  0.5000050E+01  0.7818608E-02  0.2136455E+00
        -11   -1    0    0    0    0  0.00000000000E+00  0.00000000000E+00  0.50000499739E+01  0.50000500000E+01  0.51100000000E-03 0.  1.
         11   -1    0    0    0    0 -0.00000000000E+00 -0.00000000000E+00 -0.50000499739E+01  0.50000500000E+01  0.51100000000E-03 0. -1.
         50    1    1    2    0    0 -0.17887783384E-01  0.10816445002E-01  0.79394094936E-02  0.50000500000E+01  0.50000000000E+01 0.  1.
         50    1    1    2    0    0  0.17887783384E-01 -0.10816445002E-01 -0.79394094936E-02  0.50000500000E+01  0.50000000000E+01 0. -1.
</event>
<event>
 4    1  0.5060607E-021  0.5000050E+01  0.7818608E-02  0.2136455E+00
        -11   -1    0    0    0    0  0.00000000000E+00  0.00000000000E+00  0.50000499739E+01  0.50000500000E+01  0.51100000000E-03 0.  1.
         11   -1    0    0    0    0 -0.00000000000E+00 -0.00000000000E+00 -0.50000499739E+01  0.50000500000E+01  0.51100000000E-03 0. -1.
         50    1    1    2    0    0  0.17711909746E-01 -0.23915967404E-02  0.13437671605E-01  0.50000500000E+01  0.50000000000E+01 0.  1.
         50    1    1    2    0    0 -0.17711909746E-01  0.23915967404E-02 -0.13437671605E-01  0.50000500000E+01  0.50000000000E+01 0.  0.
</event>
<event>
 4    1  0.5060607E-021  0.5000050E+01  0.7818608E-02  0.2136455E+00
        -11   -1    0    0    0    0  0.00000000000E+00  0.00000000000E+00  0.50000499739E+01  0.50000500000E+01  0.51100000000E-03 0. -1.
         11   -1    0    0    0    0 -0.00000000000E+00 -0.00000000000E+00 -0.50000499739E+01  0.50000500000E+01  0.51100000000E-03 0.  1.
         50    1    1    2    0    0  0.17081031907E-01 -0.11956990511E-01  0.80790610152E-02  0.50000500000E+01  0.50000000000E+01 0. -1.
         50    1    1    2    0    0 -0.17081031907E-01  0.11956990511E-01 -0.80790610152E-02  0.50000500000E+01  0.50000000000E+01 0. -1.
</event>
<event>
 4    1  0.5060607E-021  0.5000050E+01  0.7818608E-02  0.2136455E+00
        -11   -1    0    0    0    0  0.00000000000E+00  0.00000000000E+00  0.50000499739E+01  0.50000500000E+01  0.51100000000E-03 0. -1.
         11   -1    0    0    0    0 -0.00000000000E+00 -0.00000000000E+00 -0.50000499739E+01  0.50000500000E+01  0.51100000000E-03 0.  1.
         50    1    1    2    0    0  0.13171660927E-01  0.17393412530E-01  0.48968407160E-02  0.50000500000E+01  0.50000000000E+01 0. -1.
         50    1    1    2    0    0 -0.13171660927E-01 -0.17393412530E-01 -0.48968407160E-02  0.50000500000E+01  0.50000000000E+01 0.  1.
</event>
<event>
 4    1  0.5060607E-021  0.5000050E+01  0.7818608E-02  0.2136455E+00
        -11   -1    0    0    0    0  0.00000000000E+00  0.00000000000E+00  0.50000499739E+01  0.50000500000E+01  0.51100000000E-03 0. -1.
         11   -1    0    0    0    0 -0.00000000000E+00 -0.00000000000E+00 -0.50000499739E+01  0.50000500000E+01  0.51100000000E-03 0.  1.
         50    1    1    2    0    0  0.85217293339E-02  0.20578667763E-01 -0.19751106980E-02  0.50000500000E+01  0.50000000000E+01 0.  1.
         50    1    1    2    0    0 -0.85217293339E-02 -0.20578667763E-01  0.19751106980E-02  0.50000500000E+01  0.50000000000E+01 0. -1.
</event>
<event>
 4    1  0.5060607E-021  0.5000050E+01  0.7818608E-02  0.2136455E+00
        -11   -1    0    0    0    0  0.00000000000E+00  0.00000000000E+00  0.50000499739E+01  0.50000500000E+01  0.51100000000E-03 0.  1.
         11   -1    0    0    0    0 -0.00000000000E+00 -0.00000000000E+00 -0.50000499739E+01  0.50000500000E+01  0.51100000000E-03 0. -1.
         50    1    1    2    0    0 -0.34907395969E-02  0.10984212804E-01  0.19161531936E-01  0.50000500000E+01  0.50000000000E+01 0.  1.
         50    1    1    2    0    0  0.34907395969E-02 -0.10984212804E-01 -0.19161531936E-01  0.50000500000E+01  0.50000000000E+01 0. -1.
</event>
<event>
 4    1  0.5060607E-021  0.5000050E+01  0.7818608E-02  0.2136455E+00
        -11   -1    0    0    0    0  0.00000000000E+00  0.00000000000E+00  0.50000499739E+01  0.50000500000E+01  0.51100000000E-03 0. -1.
         11   -1    0    0    0    0 -0.00000000000E+00 -0.00000000000E+00 -0.50000499739E+01  0.50000500000E+01  0.51100000000E-03 0.  1.
         50    1    1    2    0    0 -0.85858833196E-02 -0.93516848190E-02  0.18407365337E-01  0.50000500000E+01  0.50000000000E+01 0.  0.
         50    1    1    2    0    0  0.85858833196E-02  0.93516848190E-02 -0.18407365337E-01  0.50000500000E+01  0.50000000000E+01 0.  1.
</event>
<event>
 4    1  0.5060607E-021  0.5000050E+01  0.7818608E-02  0.2136455E+00
        -11   -1    0    0    0    0  0.00000000000E+00  0.00000000000E+00  0.50000499739E+01  0.50000500000E+01  0.51100000000E-03 0.  1.
         11   -1    0    0    0    0 -0.00000000000E+00 -0.00000000000E+00 -0.50000499739E+01  0.50000500000E+01  0.51100000000E-03 0. -1.
         50    1    1    2    0    0 -0.46774581541E-02 -0.33204726167E-02  0.21612458139E-01  0.50000500000E+01  0.50000000000E+01 0.  0.
         50    1    1    2    0    0  0.46774581541E-02  0.33204726167E-02 -0.21612458139E-01  0.50000500000E+01  0.50000000000E+01 0. -1.
</event>
<event>
 4    1  0.5060607E-021  0.5000050E+01  0.7818608E-02  0.2136455E+00
        -11   -1    0    0    0    0  0.00000000000E+00  0.00000000000E+00  0.50000499739E+01  0.50000500000E+01  0.51100000000E-03 0.  1.
         11   -1    0    0    0    0 -0.00000000000E+00 -0.00000000000E+00 -0.50000499739E+01  0.50000500000E+01  0.51100000000E-03 0. -1.
         50    1    1    2    0    0  0.20597784643E-01 -0.79475893334E-02 -0.35453619809E-02  0.50000500000E+01  0.50000000000E+01 0. -1.
         50    1    1    2    0    0 -0.20597784643E-01  0.79475893334E-02  0.35453619809E-02  0.50000500000E+01  0.50000000000E+01 0.  1.
</event>
<event>
 4    1  0.1771629E-020  0.5000050E+01  0.7818608E-02  0.2136455E+00
        -11   -1    0    0    0    0  0.00000000000E+00  0.00000000000E+00  0.50000499739E+01  0.50000500000E+01  0.51100000000E-03 0. -1.
         11   -1    0    0    0    0 -0.00000000000E+00 -0.00000000000E+00 -0.50000499739E+01  0.50000500000E+01  0.51100000000E-03 0.  1.
         50    1    1    2    0    0  0.27778277114E-02  0.33066568731E-02  0.21939740051E-01  0.50000500000E+01  0.50000000000E+01 0. -1.
         50    1    1    2    0    0 -0.27778277114E-02 -0.33066568731E-02 -0.21939740051E-01  0.50000500000E+01  0.50000000000E+01 0. -1.
</event>
<event>
 4    1  0.5060607E-021  0.5000050E+01  0.7818608E-02  0.2136455E+00
        -11   -1    0    0    0    0  0.00000000000E+00  0.00000000000E+00  0.50000499739E+01  0.50000500000E+01  0.51100000000E-03 0.  1.
         11   -1    0    0    0    0 -0.00000000000E+00 -0.00000000000E+00 -0.50000499739E+01  0.50000500000E+01  0.51100000000E-03 0. -1.
         50    1    1    2    0    0  0.96587883196E-02  0.45301336804E-02  0.19651671609E-01  0.50000500000E+01  0.50000000000E+01 0.  1.
         50    1    1    2    0    0 -0.96587883196E-02 -0.45301336804E-02 -0.19651671609E-01  0.50000500000E+01  0.50000000000E+01 0. -1.
</event>
<event>
 4    1  0.5060607E-021  0.5000050E+01  0.7818608E-02  0.2136455E+00
        -11   -1    0    0    0    0  0.00000000000E+00  0.00000000000E+00  0.50000499739E+01  0.50000500000E+01  0.51100000000E-03 0. -1.
         11   -1    0    0    0    0 -0.00000000000E+00 -0.00000000000E+00 -0.50000499739E+01  0.50000500000E+01  0.51100000000E-03 0.  1.
         50    1    1    2    0    0 -0.19899103889E-01  0.21888289703E-02 -0.99617865942E-02  0.50000500000E+01  0.50000000000E+01 0.  0.
         50    1    1    2    0    0  0.19899103889E-01 -0.21888289703E-02  0.99617865942E-02  0.50000500000E+01  0.50000000000E+01 0.  1.
</event>
<event>
 4    1  0.5060607E-021  0.5000050E+01  0.7818608E-02  0.2136455E+00
        -11   -1    0    0    0    0  0.00000000000E+00  0.00000000000E+00  0.50000499739E+01  0.50000500000E+01  0.51100000000E-03 0. -1.
         11   -1    0    0    0    0 -0.00000000000E+00 -0.00000000000E+00 -0.50000499739E+01  0.50000500000E+01  0.51100000000E-03 0.  1.
         50    1    1    2    0    0  0.10389740574E-01 -0.35487429362E-02  0.19479789896E-01  0.50000500000E+01  0.50000000000E+01 0.  0.
         50    1    1    2    0    0 -0.10389740574E-01  0.35487429362E-02 -0.19479789896E-01  0.50000500000E+01  0.50000000000E+01 0.  0.
</event>
<event>
 4    1  0.5060607E-021  0.5000050E+01  0.7818608E-02  0.2136455E+00
        -11   -1    0    0    0    0  0.00000000000E+00  0.00000000000E+00  0.50000499739E+01  0.50000500000E+01  0.51100000000E-03 0.  1.
         11   -1    0    0    0    0 -0.00000000000E+00 -0.00000000000E+00 -0.50000499739E+01  0.50000500000E+01  0.51100000000E-03 0. -1.
         50    1    1    2    0    0 -0.10588628118E-01 -0.21571868262E-02  0.19576261123E-01  0.50000500000E+01  0.50000000000E+01 0.  1.
         50    1    1    2    0    0  0.10588628118E-01  0.21571868262E-02 -0.19576261123E-01  0.50000500000E+01  0.50000000000E+01 0.  0.
</event>
<event>
 4    1  0.5060607E-021  0.5000050E+01  0.7818608E-02  0.2136455E+00
        -11   -1    0    0    0    0  0.00000000000E+00  0.00000000000E+00  0.50000499739E+01  0.50000500000E+01  0.51100000000E-03 0. -1.
         11   -1    0    0    0    0 -0.00000000000E+00 -0.00000000000E+00 -0.50000499739E+01  0.50000500000E+01  0.51100000000E-03 0.  1.
         50    1    1    2    0    0 -0.12826029743E-01 -0.36119037369E-02  0.17956882035E-01  0.50000500000E+01  0.50000000000E+01 0. -1.
         50    1    1    2    0    0  0.12826029743E-01  0.36119037369E-02 -0.17956882035E-01  0.50000500000E+01  0.50000000000E+01 0.  1.
</event>
<event>
 4    1  0.5060607E-021  0.5000050E+01  0.7818608E-02  0.2136455E+00
        -11   -1    0    0    0    0  0.00000000000E+00  0.00000000000E+00  0.50000499739E+01  0.50000500000E+01  0.51100000000E-03 0. -1.
         11   -1    0    0    0    0 -0.00000000000E+00 -0.00000000000E+00 -0.50000499739E+01  0.50000500000E+01  0.51100000000E-03 0.  1.
         50    1    1    2    0    0  0.92422058492E-02 -0.10482298546E-01 -0.17455817031E-01  0.50000500000E+01  0.50000000000E+01 0.  1.
         50    1    1    2    0    0 -0.92422058492E-02  0.10482298546E-01  0.17455817031E-01  0.50000500000E+01  0.50000000000E+01 0.  0.
</event>
<event>
 4    1  0.5060607E-021  0.5000050E+01  0.7818608E-02  0.2136455E+00
        -11   -1    0    0    0    0  0.00000000000E+00  0.00000000000E+00  0.50000499739E+01  0.50000500000E+01  0.51100000000E-03 0. -1.
         11   -1    0    0    0    0 -0.00000000000E+00 -0.00000000000E+00 -0.50000499739E+01  0.50000500000E+01  0.51100000000E-03 0.  1.
         50    1    1    2    0    0  0.10873001041E-01 -0.70935930790E-03 -0.19526319616E-01  0.50000500000E+01  0.50000000000E+01 0.  0.
         50    1    1    2    0    0 -0.10873001041E-01  0.70935930790E-03  0.19526319616E-01  0.50000500000E+01  0.50000000000E+01 0. -1.
</event>
<event>
 4    1  0.5060607E-021  0.5000050E+01  0.7818608E-02  0.2136455E+00
        -11   -1    0    0    0    0  0.00000000000E+00  0.00000000000E+00  0.50000499739E+01  0.50000500000E+01  0.51100000000E-03 0. -1.
         11   -1    0    0    0    0 -0.00000000000E+00 -0.00000000000E+00 -0.50000499739E+01  0.50000500000E+01  0.51100000000E-03 0.  1.
         50    1    1    2    0    0 -0.35743774240E-02 -0.16834444398E-01 -0.14276827654E-01  0.50000500000E+01  0.50000000000E+01 0.  1.
         50    1    1    2    0    0  0.35743774240E-02  0.16834444398E-01  0.14276827654E-01  0.50000500000E+01  0.50000000000E+01 0. -1.
</event>
<event>
 4    1  0.5060607E-021  0.5000050E+01  0.7818608E-02  0.2136455E+00
        -11   -1    0    0    0    0  0.00000000000E+00  0.00000000000E+00  0.50000499739E+01  0.50000500000E+01  0.51100000000E-03 0.  1.
         11   -1    0    0    0    0 -0.00000000000E+00 -0.00000000000E+00 -0.50000499739E+01  0.50000500000E+01  0.51100000000E-03 0. -1.
         50    1    1    2    0    0 -0.12724037888E-01  0.41066178812E-02  0.17923087050E-01  0.50000500000E+01  0.50000000000E+01 0.  1.
         50    1    1    2    0    0  0.12724037888E-01 -0.41066178812E-02 -0.17923087050E-01  0.50000500000E+01  0.50000000000E+01 0.  0.
</event>
<event>
 4    1  0.5060607E-021  0.5000050E+01  0.7818608E-02  0.2136455E+00
        -11   -1    0    0    0    0  0.00000000000E+00  0.00000000000E+00  0.50000499739E+01  0.50000500000E+01  0.51100000000E-03 0. -1.
         11   -1    0    0    0    0 -0.00000000000E+00 -0.00000000000E+00 -0.50000499739E+01  0.50000500000E+01  0.51100000000E-03 0.  1.
         50    1    1    2    0    0 -0.30421626245E-03 -0.21475108981E-02  0.22255294862E-01  0.50000500000E+01  0.50000000000E+01 0. -1.
         50    1    1    2    0    0  0.30421626245E-03  0.21475108981E-02 -0.22255294862E-01  0.50000500000E+01  0.50000000000E+01 0.  0.
</event>
<event>
 4    1  0.5060607E-021  0.5000050E+01  0.7818608E-02  0.2136455E+00
        -11   -1    0    0    0    0  0.00000000000E+00  0.00000000000E+00  0.50000499739E+01  0.50000500000E+01  0.51100000000E-03 0. -1.
         11   -1    0    0    0    0 -0.00000000000E+00 -0.00000000000E+00 -0.50000499739E+01  0.50000500000E+01  0.51100000000E-03 0.  1.
         50    1    1    2    0    0  0.11977180163E-01  0.81132302917E-02 -0.17050664197E-01  0.50000500000E+01  0.50000000000E+01 0.  0.
         50    1    1    2    0    0 -0.11977180163E-01 -0.81132302917E-02  0.17050664197E-01  0.50000500000E+01  0.50000000000E+01 0.  1.
</event>
<event>
 4    1  0.5060607E-021  0.5000050E+01  0.7818608E-02  0.2136455E+00
        -11   -1    0    0    0    0  0.00000000000E+00  0.00000000000E+00  0.50000499739E+01  0.50000500000E+01  0.51100000000E-03 0.  1.
         11   -1    0    0    0    0 -0.00000000000E+00 -0.00000000000E+00 -0.50000499739E+01  0.50000500000E+01  0.51100000000E-03 0. -1.
         50    1    1    2    0    0 -0.13240918222E-01  0.70618060876E-02  0.16577438868E-01  0.50000500000E+01  0.50000000000E+01 0.  1.
         50    1    1    2    0    0  0.13240918222E-01 -0.70618060876E-02 -0.16577438868E-01  0.50000500000E+01  0.50000000000E+01 0.  0.
</event>
<event>
 4    1  0.5060607E-021  0.5000050E+01  0.7818608E-02  0.2136455E+00
        -11   -1    0    0    0    0  0.00000000000E+00  0.00000000000E+00  0.50000499739E+01  0.50000500000E+01  0.51100000000E-03 0. -1.
         11   -1    0    0    0    0 -0.00000000000E+00 -0.00000000000E+00 -0.50000499739E+01  0.50000500000E+01  0.51100000000E-03 0.  1.
         50    1    1    2    0    0 -0.18520224053E-01  0.12441711904E-01  0.14858014436E-02  0.50000500000E+01  0.50000000000E+01 0.  1.
         50    1    1    2    0    0  0.18520224053E-01 -0.12441711904E-01 -0.14858014436E-02  0.50000500000E+01  0.50000000000E+01 0. -1.
</event>
<event>
 4    1  0.5060607E-021  0.5000050E+01  0.7818608E-02  0.2136455E+00
        -11   -1    0    0    0    0  0.00000000000E+00  0.00000000000E+00  0.50000499739E+01  0.50000500000E+01  0.51100000000E-03 0. -1.
         11   -1    0    0    0    0 -0.00000000000E+00 -0.00000000000E+00 -0.50000499739E+01  0.50000500000E+01  0.51100000000E-03 0.  1.
         50    1    1    2    0    0  0.12811746197E-02  0.13740568566E-01  0.17594256650E-01  0.50000500000E+01  0.50000000000E+01 0.  0.
         50    1    1    2    0    0 -0.12811746197E-02 -0.13740568566E-01 -0.17594256650E-01  0.50000500000E+01  0.50000000000E+01 0.  0.
</event>
<event>
 4    1  0.5060607E-021  0.5000050E+01  0.7818608E-02  0.2136455E+00
        -11   -1    0    0    0    0  0.00000000000E+00  0.00000000000E+00  0.50000499739E+01  0.50000500000E+01  0.51100000000E-03 0. -1.
         11   -1    0    0    0    0 -0.00000000000E+00 -0.00000000000E+00 -0.50000499739E+01  0.50000500000E+01  0.51100000000E-03 0.  1.
         50    1    1    2    0    0 -0.14745823192E-01 -0.39325839667E-02  0.16343132556E-01  0.50000500000E+01  0.50000000000E+01 0.  0.
         50    1    1    2    0    0  0.14745823192E-01  0.39325839667E-02 -0.16343132556E-01  0.50000500000E+01  0.50000000000E+01 0.  1.
</event>
<event>
 4    1  0.5060607E-021  0.5000050E+01  0.7818608E-02  0.2136455E+00
        -11   -1    0    0    0    0  0.00000000000E+00  0.00000000000E+00  0.50000499739E+01  0.50000500000E+01  0.51100000000E-03 0.  1.
         11   -1    0    0    0    0 -0.00000000000E+00 -0.00000000000E+00 -0.50000499739E+01  0.50000500000E+01  0.51100000000E-03 0. -1.
         50    1    1    2    0    0  0.30808749306E-02  0.21503883482E-01  0.53003495034E-02  0.50000500000E+01  0.50000000000E+01 0.  1.
         50    1    1    2    0    0 -0.30808749306E-02 -0.21503883482E-01 -0.53003495034E-02  0.50000500000E+01  0.50000000000E+01 0. -1.
</event>
<event>
 4    1  0.5060607E-021  0.5000050E+01  0.7818608E-02  0.2136455E+00
        -11   -1    0    0    0    0  0.00000000000E+00  0.00000000000E+00  0.50000499739E+01  0.50000500000E+01  0.51100000000E-03 0.  1.
         11   -1    0    0    0    0 -0.00000000000E+00 -0.00000000000E+00 -0.50000499739E+01  0.50000500000E+01  0.51100000000E-03 0. -1.
         50    1    1    2    0    0  0.22102822886E-01 -0.21434419137E-02  0.26217126494E-02  0.50000500000E+01  0.50000000000E+01 0.  1.
         50    1    1    2    0    0 -0.22102822886E-01  0.21434419137E-02 -0.26217126494E-02  0.50000500000E+01  0.50000000000E+01 0.  0.
</event>
<event>
 4    1  0.5060607E-021  0.5000050E+01  0.7818608E-02  0.2136455E+00
        -11   -1    0    0    0    0  0.00000000000E+00  0.00000000000E+00  0.50000499739E+01  0.50000500000E+01  0.51100000000E-03 0. -1.
         11   -1    0    0    0    0 -0.00000000000E+00 -0.00000000000E+00 -0.50000499739E+01  0.50000500000E+01  0.51100000000E-03 0.  1.
         50    1    1    2    0    0  0.33426943000E-02 -0.17732270154E-01 -0.13205888460E-01  0.50000500000E+01  0.50000000000E+01 0.  0.
         50    1    1    2    0    0 -0.33426943000E-02  0.17732270154E-01  0.13205888460E-01  0.50000500000E+01  0.50000000000E+01 0.  0.
</event>
<event>
 4    1  0.5060607E-021  0.5000050E+01  0.7818608E-02  0.2136455E+00
        -11   -1    0    0    0    0  0.00000000000E+00  0.00000000000E+00  0.50000499739E+01  0.50000500000E+01  0.51100000000E-03 0. -1.
         11   -1    0    0    0    0 -0.00000000000E+00 -0.00000000000E+00 -0.50000499739E+01  0.50000500000E+01  0.51100000000E-03 0.  1.
         50    1    1    2    0    0 -0.95261405074E-02  0.19419178300E-01 -0.56701553038E-02  0.50000500000E+01  0.50000000000E+01 0.  1.
         50    1    1    2    0    0  0.95261405074E-02 -0.19419178300E-01  0.56701553038E-02  0.50000500000E+01  0.50000000000E+01 0.  1.
</event>
<event>
 4    1  0.5060607E-021  0.5000050E+01  0.7818608E-02  0.2136455E+00
        -11   -1    0    0    0    0  0.00000000000E+00  0.00000000000E+00  0.50000499739E+01  0.50000500000E+01  0.51100000000E-03 0.  1.
         11   -1    0    0    0    0 -0.00000000000E+00 -0.00000000000E+00 -0.50000499739E+01  0.50000500000E+01  0.51100000000E-03 0. -1.
         50    1    1    2    0    0  0.17470568702E-01 -0.10569820161E-01  0.91137605292E-02  0.50000500000E+01  0.50000000000E+01 0.  1.
         50    1    1    2    0    0 -0.17470568702E-01  0.10569820161E-01 -0.91137605292E-02  0.50000500000E+01  0.50000000000E+01 0. -1.
</event>
<event>
 4    1  0.5060607E-021  0.5000050E+01  0.7818608E-02  0.2136455E+00
        -11   -1    0    0    0    0  0.00000000000E+00  0.00000000000E+00  0.50000499739E+01  0.50000500000E+01  0.51100000000E-03 0. -1.
         11   -1    0    0    0    0 -0.00000000000E+00 -0.00000000000E+00 -0.50000499739E+01  0.50000500000E+01  0.51100000000E-03 0.  1.
         50    1    1    2    0    0  0.16822471323E-01 -0.14722852837E-01 -0.49453304178E-03  0.50000500000E+01  0.50000000000E+01 0. -1.
         50    1    1    2    0    0 -0.16822471323E-01  0.14722852837E-01  0.49453304178E-03  0.50000500000E+01  0.50000000000E+01 0.  1.
</event>
<event>
 4    1  0.5060607E-021  0.5000050E+01  0.7818608E-02  0.2136455E+00
        -11   -1    0    0    0    0  0.00000000000E+00  0.00000000000E+00  0.50000499739E+01  0.50000500000E+01  0.51100000000E-03 0. -1.
         11   -1    0    0    0    0 -0.00000000000E+00 -0.00000000000E+00 -0.50000499739E+01  0.50000500000E+01  0.51100000000E-03 0.  1.
         50    1    1    2    0    0 -0.15826456721E-01 -0.14598235167E-02 -0.15728785171E-01  0.50000500000E+01  0.50000000000E+01 0.  1.
         50    1    1    2    0    0  0.15826456721E-01  0.14598235167E-02  0.15728785171E-01  0.50000500000E+01  0.50000000000E+01 0.  0.
</event>
<event>
 4    1  0.5060607E-021  0.5000050E+01  0.7818608E-02  0.2136455E+00
        -11   -1    0    0    0    0  0.00000000000E+00  0.00000000000E+00  0.50000499739E+01  0.50000500000E+01  0.51100000000E-03 0. -1.
         11   -1    0    0    0    0 -0.00000000000E+00 -0.00000000000E+00 -0.50000499739E+01  0.50000500000E+01  0.51100000000E-03 0.  1.
         50    1    1    2    0    0  0.12008676049E-01  0.52811562001E-03 -0.18855113191E-01  0.50000500000E+01  0.50000000000E+01 0.  1.
         50    1    1    2    0    0 -0.12008676049E-01 -0.52811562001E-03  0.18855113191E-01  0.50000500000E+01  0.50000000000E+01 0.  1.
</event>
<event>
 4    1  0.5060607E-021  0.5000050E+01  0.7818608E-02  0.2136455E+00
        -11   -1    0    0    0    0  0.00000000000E+00  0.00000000000E+00  0.50000499739E+01  0.50000500000E+01  0.51100000000E-03 0.  1.
         11   -1    0    0    0    0 -0.00000000000E+00 -0.00000000000E+00 -0.50000499739E+01  0.50000500000E+01  0.51100000000E-03 0. -1.
         50    1    1    2    0    0  0.18617591858E-01 -0.12030895846E-01 -0.29402922558E-02  0.50000500000E+01  0.50000000000E+01 0.  0.
         50    1    1    2    0    0 -0.18617591858E-01  0.12030895846E-01  0.29402922558E-02  0.50000500000E+01  0.50000000000E+01 0.  1.
</event>
<event>
 4    1  0.5060607E-021  0.5000050E+01  0.7818608E-02  0.2136455E+00
        -11   -1    0    0    0    0  0.00000000000E+00  0.00000000000E+00  0.50000499739E+01  0.50000500000E+01  0.51100000000E-03 0.  1.
         11   -1    0    0    0    0 -0.00000000000E+00 -0.00000000000E+00 -0.50000499739E+01  0.50000500000E+01  0.51100000000E-03 0. -1.
         50    1    1    2    0    0  0.12986879230E-01 -0.19762515057E-02  0.18095245172E-01  0.50000500000E+01  0.50000000000E+01 0.  0.
         50    1    1    2    0    0 -0.12986879230E-01  0.19762515057E-02 -0.18095245172E-01  0.50000500000E+01  0.50000000000E+01 0.  0.
</event>
<event>
 4    1  0.5060607E-021  0.5000050E+01  0.7818608E-02  0.2136455E+00
        -11   -1    0    0    0    0  0.00000000000E+00  0.00000000000E+00  0.50000499739E+01  0.50000500000E+01  0.51100000000E-03 0. -1.
         11   -1    0    0    0    0 -0.00000000000E+00 -0.00000000000E+00 -0.50000499739E+01  0.50000500000E+01  0.51100000000E-03 0.  1.
         50    1    1    2    0    0  0.18952195644E-02 -0.84061292823E-02 -0.20633652931E-01  0.50000500000E+01  0.50000000000E+01 0.  1.
         50    1    1    2    0    0 -0.18952195644E-02  0.84061292823E-02  0.20633652931E-01  0.50000500000E+01  0.50000000000E+01 0. -1.
</event>
<event>
 4    1  0.5060607E-021  0.5000050E+01  0.7818608E-02  0.2136455E+00
        -11   -1    0    0    0    0  0.00000000000E+00  0.00000000000E+00  0.50000499739E+01  0.50000500000E+01  0.51100000000E-03 0. -1.
         11   -1    0    0    0    0 -0.00000000000E+00 -0.00000000000E+00 -0.50000499739E+01  0.50000500000E+01  0.51100000000E-03 0.  1.
         50    1    1    2    0    0  0.25592582782E-02 -0.22159890528E-01  0.15465926572E-02  0.50000500000E+01  0.50000000000E+01 0.  1.
         50    1    1    2    0    0 -0.25592582782E-02  0.22159890528E-01 -0.15465926572E-02  0.50000500000E+01  0.50000000000E+01 0. -1.
</event>
<event>
 4    1  0.5060607E-021  0.5000050E+01  0.7818608E-02  0.2136455E+00
        -11   -1    0    0    0    0  0.00000000000E+00  0.00000000000E+00  0.50000499739E+01  0.50000500000E+01  0.51100000000E-03 0. -1.
         11   -1    0    0    0    0 -0.00000000000E+00 -0.00000000000E+00 -0.50000499739E+01  0.50000500000E+01  0.51100000000E-03 0.  1.
         50    1    1    2    0    0  0.45821645233E-02 -0.21558480208E-01 -0.37733538638E-02  0.50000500000E+01  0.50000000000E+01 0.  1.
         50    1    1    2    0    0 -0.45821645233E-02  0.21558480208E-01  0.37733538638E-02  0.50000500000E+01  0.50000000000E+01 0. -1.
</event>
<event>
 4    1  0.5060607E-021  0.5000050E+01  0.7818608E-02  0.2136455E+00
        -11   -1    0    0    0    0  0.00000000000E+00  0.00000000000E+00  0.50000499739E+01  0.50000500000E+01  0.51100000000E-03 0.  1.
         11   -1    0    0    0    0 -0.00000000000E+00 -0.00000000000E+00 -0.50000499739E+01  0.50000500000E+01  0.51100000000E-03 0. -1.
         50    1    1    2    0    0 -0.16426370430E-01  0.14946591625E-01  0.26031237558E-02  0.50000500000E+01  0.50000000000E+01 0.  0.
         50    1    1    2    0    0  0.16426370430E-01 -0.14946591625E-01 -0.26031237558E-02  0.50000500000E+01  0.50000000000E+01 0.  1.
</event>
<event>
 4    1  0.5060607E-021  0.5000050E+01  0.7818608E-02  0.2136455E+00
        -11   -1    0    0    0    0  0.00000000000E+00  0.00000000000E+00  0.50000499739E+01  0.50000500000E+01  0.51100000000E-03 0. -1.
         11   -1    0    0    0    0 -0.00000000000E+00 -0.00000000000E+00 -0.50000499739E+01  0.50000500000E+01  0.51100000000E-03 0.  1.
         50    1    1    2    0    0 -0.29354090220E-03 -0.15769237067E-01  0.15850788500E-01  0.50000500000E+01  0.50000000000E+01 0.  1.
         50    1    1    2    0    0  0.29354090220E-03  0.15769237067E-01 -0.15850788500E-01  0.50000500000E+01  0.50000000000E+01 0.  1.
</event>
<event>
 4    1  0.5060607E-021  0.5000050E+01  0.7818608E-02  0.2136455E+00
        -11   -1    0    0    0    0  0.00000000000E+00  0.00000000000E+00  0.50000499739E+01  0.50000500000E+01  0.51100000000E-03 0.  1.
         11   -1    0    0    0    0 -0.00000000000E+00 -0.00000000000E+00 -0.50000499739E+01  0.50000500000E+01  0.51100000000E-03 0. -1.
         50    1    1    2    0    0  0.16849936302E-01  0.14600380915E-01 -0.17061722527E-02  0.50000500000E+01  0.50000000000E+01 0. -1.
         50    1    1    2    0    0 -0.16849936302E-01 -0.14600380915E-01  0.17061722527E-02  0.50000500000E+01  0.50000000000E+01 0.  0.
</event>
<event>
 4    1  0.5060607E-021  0.5000050E+01  0.7818608E-02  0.2136455E+00
        -11   -1    0    0    0    0  0.00000000000E+00  0.00000000000E+00  0.50000499739E+01  0.50000500000E+01  0.51100000000E-03 0.  1.
         11   -1    0    0    0    0 -0.00000000000E+00 -0.00000000000E+00 -0.50000499739E+01  0.50000500000E+01  0.51100000000E-03 0. -1.
         50    1    1    2    0    0 -0.43888645926E-03 -0.22270278721E-01  0.19607560682E-02  0.50000500000E+01  0.50000000000E+01 0.  0.
         50    1    1    2    0    0  0.43888645926E-03  0.22270278721E-01 -0.19607560682E-02  0.50000500000E+01  0.50000000000E+01 0. -1.
</event>
<event>
 4    1  0.5060607E-021  0.5000050E+01  0.7818608E-02  0.2136455E+00
        -11   -1    0    0    0    0  0.00000000000E+00  0.00000000000E+00  0.50000499739E+01  0.50000500000E+01  0.51100000000E-03 0. -1.
         11   -1    0    0    0    0 -0.00000000000E+00 -0.00000000000E+00 -0.50000499739E+01  0.50000500000E+01  0.51100000000E-03 0.  1.
         50    1    1    2    0    0 -0.18153950823E-01  0.10543375152E-01  0.76989486242E-02  0.50000500000E+01  0.50000000000E+01 0.  0.
         50    1    1    2    0    0  0.18153950823E-01 -0.10543375152E-01 -0.76989486242E-02  0.50000500000E+01  0.50000000000E+01 0. -1.
</event>
<event>
 4    1  0.5060607E-021  0.5000050E+01  0.7818608E-02  0.2136455E+00
        -11   -1    0    0    0    0  0.00000000000E+00  0.00000000000E+00  0.50000499739E+01  0.50000500000E+01  0.51100000000E-03 0. -1.
         11   -1    0    0    0    0 -0.00000000000E+00 -0.00000000000E+00 -0.50000499739E+01  0.50000500000E+01  0.51100000000E-03 0.  1.
         50    1    1    2    0    0 -0.32788979128E-02 -0.22086180293E-01 -0.12049765648E-02  0.50000500000E+01  0.50000000000E+01 0. -1.
         50    1    1    2    0    0  0.32788979128E-02  0.22086180293E-01  0.12049765648E-02  0.50000500000E+01  0.50000000000E+01 0.  1.
</event>
<event>
 4    1  0.5060607E-021  0.5000050E+01  0.7818608E-02  0.2136455E+00
        -11   -1    0    0    0    0  0.00000000000E+00  0.00000000000E+00  0.50000499739E+01  0.50000500000E+01  0.51100000000E-03 0.  1.
         11   -1    0    0    0    0 -0.00000000000E+00 -0.00000000000E+00 -0.50000499739E+01  0.50000500000E+01  0.51100000000E-03 0. -1.
         50    1    1    2    0    0 -0.10627134248E-01  0.10666410188E-01  0.16531612486E-01  0.50000500000E+01  0.50000000000E+01 0.  1.
         50    1    1    2    0    0  0.10627134248E-01 -0.10666410188E-01 -0.16531612486E-01  0.50000500000E+01  0.50000000000E+01 0.  0.
</event>
<event>
 4    1  0.5060607E-021  0.5000050E+01  0.7818608E-02  0.2136455E+00
        -11   -1    0    0    0    0  0.00000000000E+00  0.00000000000E+00  0.50000499739E+01  0.50000500000E+01  0.51100000000E-03 0. -1.
         11   -1    0    0    0    0 -0.00000000000E+00 -0.00000000000E+00 -0.50000499739E+01  0.50000500000E+01  0.51100000000E-03 0.  1.
         50    1    1    2    0    0 -0.77171596885E-02 -0.20135583973E-02  0.20890034201E-01  0.50000500000E+01  0.50000000000E+01 0.  0.
         50    1    1    2    0    0  0.77171596885E-02  0.20135583973E-02 -0.20890034201E-01  0.50000500000E+01  0.50000000000E+01 0.  1.
</event>
<event>
 4    1  0.5060607E-021  0.5000050E+01  0.7818608E-02  0.2136455E+00
        -11   -1    0    0    0    0  0.00000000000E+00  0.00000000000E+00  0.50000499739E+01  0.50000500000E+01  0.51100000000E-03 0.  1.
         11   -1    0    0    0    0 -0.00000000000E+00 -0.00000000000E+00 -0.50000499739E+01  0.50000500000E+01  0.51100000000E-03 0. -1.
         50    1    1    2    0    0 -0.19302631014E-01  0.54273875793E-02  0.98971915204E-02  0.50000500000E+01  0.50000000000E+01 0.  1.
         50    1    1    2    0    0  0.19302631014E-01 -0.54273875793E-02 -0.98971915204E-02  0.50000500000E+01  0.50000000000E+01 0. -1.
</event>
<event>
 4    1  0.5060607E-021  0.5000050E+01  0.7818608E-02  0.2136455E+00
        -11   -1    0    0    0    0  0.00000000000E+00  0.00000000000E+00  0.50000499739E+01  0.50000500000E+01  0.51100000000E-03 0.  1.
         11   -1    0    0    0    0 -0.00000000000E+00 -0.00000000000E+00 -0.50000499739E+01  0.50000500000E+01  0.51100000000E-03 0. -1.
         50    1    1    2    0    0  0.25179656428E-02 -0.21849830520E-01  0.40307884162E-02  0.50000500000E+01  0.50000000000E+01 0.  1.
         50    1    1    2    0    0 -0.25179656428E-02  0.21849830520E-01 -0.40307884162E-02  0.50000500000E+01  0.50000000000E+01 0. -1.
</event>
<event>
 4    1  0.5060607E-021  0.5000050E+01  0.7818608E-02  0.2136455E+00
        -11   -1    0    0    0    0  0.00000000000E+00  0.00000000000E+00  0.50000499739E+01  0.50000500000E+01  0.51100000000E-03 0.  1.
         11   -1    0    0    0    0 -0.00000000000E+00 -0.00000000000E+00 -0.50000499739E+01  0.50000500000E+01  0.51100000000E-03 0. -1.
         50    1    1    2    0    0 -0.20797279114E-01 -0.12022974989E-02 -0.81258945473E-02  0.50000500000E+01  0.50000000000E+01 0.  0.
         50    1    1    2    0    0  0.20797279114E-01  0.12022974989E-02  0.81258945473E-02  0.50000500000E+01  0.50000000000E+01 0.  0.
</event>
<event>
 4    1  0.5060607E-021  0.5000050E+01  0.7818608E-02  0.2136455E+00
        -11   -1    0    0    0    0  0.00000000000E+00  0.00000000000E+00  0.50000499739E+01  0.50000500000E+01  0.51100000000E-03 0.  1.
         11   -1    0    0    0    0 -0.00000000000E+00 -0.00000000000E+00 -0.50000499739E+01  0.50000500000E+01  0.51100000000E-03 0. -1.
         50    1    1    2    0    0  0.20447515824E-01  0.36286622242E-02  0.82906216354E-02  0.50000500000E+01  0.50000000000E+01 0. -1.
         50    1    1    2    0    0 -0.20447515824E-01 -0.36286622242E-02 -0.82906216354E-02  0.50000500000E+01  0.50000000000E+01 0.  0.
</event>
<event>
 4    1  0.5060607E-021  0.5000050E+01  0.7818608E-02  0.2136455E+00
        -11   -1    0    0    0    0  0.00000000000E+00  0.00000000000E+00  0.50000499739E+01  0.50000500000E+01  0.51100000000E-03 0. -1.
         11   -1    0    0    0    0 -0.00000000000E+00 -0.00000000000E+00 -0.50000499739E+01  0.50000500000E+01  0.51100000000E-03 0.  1.
         50    1    1    2    0    0 -0.14689998001E-01 -0.15795332311E-01  0.58918533528E-02  0.50000500000E+01  0.50000000000E+01 0. -1.
         50    1    1    2    0    0  0.14689998001E-01  0.15795332311E-01 -0.58918533528E-02  0.50000500000E+01  0.50000000000E+01 0.  1.
</event>
<event>
 4    1  0.5060607E-021  0.5000050E+01  0.7818608E-02  0.2136455E+00
        -11   -1    0    0    0    0  0.00000000000E+00  0.00000000000E+00  0.50000499739E+01  0.50000500000E+01  0.51100000000E-03 0. -1.
         11   -1    0    0    0    0 -0.00000000000E+00 -0.00000000000E+00 -0.50000499739E+01  0.50000500000E+01  0.51100000000E-03 0.  1.
         50    1    1    2    0    0 -0.96151597072E-02 -0.78606853717E-02 -0.18594645178E-01  0.50000500000E+01  0.50000000000E+01 0.  1.
         50    1    1    2    0    0  0.96151597072E-02  0.78606853717E-02  0.18594645178E-01  0.50000500000E+01  0.50000000000E+01 0.  0.
</event>
<event>
 4    1  0.5060607E-021  0.5000050E+01  0.7818608E-02  0.2136455E+00
        -11   -1    0    0    0    0  0.00000000000E+00  0.00000000000E+00  0.50000499739E+01  0.50000500000E+01  0.51100000000E-03 0. -1.
         11   -1    0    0    0    0 -0.00000000000E+00 -0.00000000000E+00 -0.50000499739E+01  0.50000500000E+01  0.51100000000E-03 0.  1.
         50    1    1    2    0    0 -0.20394706173E-01 -0.32356463691E-02  0.85784061857E-02  0.50000500000E+01  0.50000000000E+01 0. -1.
         50    1    1    2    0    0  0.20394706173E-01  0.32356463691E-02 -0.85784061857E-02  0.50000500000E+01  0.50000000000E+01 0.  1.
</event>
<event>
 4    1  0.5060607E-021  0.5000050E+01  0.7818608E-02  0.2136455E+00
        -11   -1    0    0    0    0  0.00000000000E+00  0.00000000000E+00  0.50000499739E+01  0.50000500000E+01  0.51100000000E-03 0.  1.
         11   -1    0    0    0    0 -0.00000000000E+00 -0.00000000000E+00 -0.50000499739E+01  0.50000500000E+01  0.51100000000E-03 0. -1.
         50    1    1    2    0    0  0.15361730694E-01  0.11407987038E-01  0.11570547170E-01  0.50000500000E+01  0.50000000000E+01 0.  0.
         50    1    1    2    0    0 -0.15361730694E-01 -0.11407987038E-01 -0.11570547170E-01  0.50000500000E+01  0.50000000000E+01 0.  1.
</event>
<event>
 4    1  0.5060607E-021  0.5000050E+01  0.7818608E-02  0.2136455E+00
        -11   -1    0    0    0    0  0.00000000000E+00  0.00000000000E+00  0.50000499739E+01  0.50000500000E+01  0.51100000000E-03 0.  1.
         11   -1    0    0    0    0 -0.00000000000E+00 -0.00000000000E+00 -0.50000499739E+01  0.50000500000E+01  0.51100000000E-03 0. -1.
         50    1    1    2    0    0 -0.18565084228E-01 -0.12462458068E-01 -0.16518627449E-03  0.50000500000E+01  0.50000000000E+01 0. -1.
         50    1    1    2    0    0  0.18565084228E-01  0.12462458068E-01  0.16518627449E-03  0.50000500000E+01  0.50000000000E+01 0.  0.
</event>
<event>
 4    1  0.5060607E-021  0.5000050E+01  0.7818608E-02  0.2136455E+00
        -11   -1    0    0    0    0  0.00000000000E+00  0.00000000000E+00  0.50000499739E+01  0.50000500000E+01  0.51100000000E-03 0.  1.
         11   -1    0    0    0    0 -0.00000000000E+00 -0.00000000000E+00 -0.50000499739E+01  0.50000500000E+01  0.51100000000E-03 0. -1.
         50    1    1    2    0    0  0.10051868444E-01 -0.37809290961E-02  0.19612929816E-01  0.50000500000E+01  0.50000000000E+01 0.  1.
         50    1    1    2    0    0 -0.10051868444E-01  0.37809290961E-02 -0.19612929816E-01  0.50000500000E+01  0.50000000000E+01 0.  0.
</event>
<event>
 4    1  0.5060607E-021  0.5000050E+01  0.7818608E-02  0.2136455E+00
        -11   -1    0    0    0    0  0.00000000000E+00  0.00000000000E+00  0.50000499739E+01  0.50000500000E+01  0.51100000000E-03 0.  1.
         11   -1    0    0    0    0 -0.00000000000E+00 -0.00000000000E+00 -0.50000499739E+01  0.50000500000E+01  0.51100000000E-03 0. -1.
         50    1    1    2    0    0 -0.14886085543E-01  0.14646381776E-01 -0.79931506982E-02  0.50000500000E+01  0.50000000000E+01 0.  0.
         50    1    1    2    0    0  0.14886085543E-01 -0.14646381776E-01  0.79931506982E-02  0.50000500000E+01  0.50000000000E+01 0. -1.
</event>
<event>
 4    1  0.5060607E-021  0.5000050E+01  0.7818608E-02  0.2136455E+00
        -11   -1    0    0    0    0  0.00000000000E+00  0.00000000000E+00  0.50000499739E+01  0.50000500000E+01  0.51100000000E-03 0. -1.
         11   -1    0    0    0    0 -0.00000000000E+00 -0.00000000000E+00 -0.50000499739E+01  0.50000500000E+01  0.51100000000E-03 0.  1.
         50    1    1    2    0    0  0.63668733343E-02  0.21403135580E-01 -0.11709873049E-02  0.50000500000E+01  0.50000000000E+01 0. -1.
         50    1    1    2    0    0 -0.63668733343E-02 -0.21403135580E-01  0.11709873049E-02  0.50000500000E+01  0.50000000000E+01 0.  0.
</event>
<event>
 4    1  0.5060607E-021  0.5000050E+01  0.7818608E-02  0.2136455E+00
        -11   -1    0    0    0    0  0.00000000000E+00  0.00000000000E+00  0.50000499739E+01  0.50000500000E+01  0.51100000000E-03 0. -1.
         11   -1    0    0    0    0 -0.00000000000E+00 -0.00000000000E+00 -0.50000499739E+01  0.50000500000E+01  0.51100000000E-03 0.  1.
         50    1    1    2    0    0  0.64151608992E-02 -0.33351025615E-02  0.21159520352E-01  0.50000500000E+01  0.50000000000E+01 0.  1.
         50    1    1    2    0    0 -0.64151608992E-02  0.33351025615E-02 -0.21159520352E-01  0.50000500000E+01  0.50000000000E+01 0.  1.
</event>
<event>
 4    1  0.5060607E-021  0.5000050E+01  0.7818608E-02  0.2136455E+00
        -11   -1    0    0    0    0  0.00000000000E+00  0.00000000000E+00  0.50000499739E+01  0.50000500000E+01  0.51100000000E-03 0.  1.
         11   -1    0    0    0    0 -0.00000000000E+00 -0.00000000000E+00 -0.50000499739E+01  0.50000500000E+01  0.51100000000E-03 0. -1.
         50    1    1    2    0    0  0.15392731715E-01 -0.11376539174E-01  0.11560305652E-01  0.50000500000E+01  0.50000000000E+01 0. -1.
         50    1    1    2    0    0 -0.15392731715E-01  0.11376539174E-01 -0.11560305652E-01  0.50000500000E+01  0.50000000000E+01 0. -1.
</event>
<event>
 4    1  0.5060607E-021  0.5000050E+01  0.7818608E-02  0.2136455E+00
        -11   -1    0    0    0    0  0.00000000000E+00  0.00000000000E+00  0.50000499739E+01  0.50000500000E+01  0.51100000000E-03 0.  1.
         11   -1    0    0    0    0 -0.00000000000E+00 -0.00000000000E+00 -0.50000499739E+01  0.50000500000E+01  0.51100000000E-03 0. -1.
         50    1    1    2    0    0  0.60808287057E-02  0.14766524280E-01  0.15651702238E-01  0.50000500000E+01  0.50000000000E+01 0.  1.
         50    1    1    2    0    0 -0.60808287057E-02 -0.14766524280E-01 -0.15651702238E-01  0.50000500000E+01  0.50000000000E+01 0. -1.
</event>
<event>
 4    1  0.5060607E-021  0.5000050E+01  0.7818608E-02  0.2136455E+00
        -11   -1    0    0    0    0  0.00000000000E+00  0.00000000000E+00  0.50000499739E+01  0.50000500000E+01  0.51100000000E-03 0.  1.
         11   -1    0    0    0    0 -0.00000000000E+00 -0.00000000000E+00 -0.50000499739E+01  0.50000500000E+01  0.51100000000E-03 0. -1.
         50    1    1    2    0    0  0.89408100080E-02 -0.17089858990E-01 -0.11313758707E-01  0.50000500000E+01  0.50000000000E+01 0.  0.
         50    1    1    2    0    0 -0.89408100080E-02  0.17089858990E-01  0.11313758707E-01  0.50000500000E+01  0.50000000000E+01 0. -1.
</event>
<event>
 4    1  0.5060607E-021  0.5000050E+01  0.7818608E-02  0.2136455E+00
        -11   -1    0    0    0    0  0.00000000000E+00  0.00000000000E+00  0.50000499739E+01  0.50000500000E+01  0.51100000000E-03 0. -1.
         11   -1    0    0    0    0 -0.00000000000E+00 -0.00000000000E+00 -0.50000499739E+01  0.50000500000E+01  0.51100000000E-03 0.  1.
         50    1    1    2    0    0 -0.19719244086E-01  0.65509301866E-04  0.10542752071E-01  0.50000500000E+01  0.50000000000E+01 0.  0.
         50    1    1    2    0    0  0.19719244086E-01 -0.65509301866E-04 -0.10542752071E-01  0.50000500000E+01  0.50000000000E+01 0.  0.
</event>
<event>
 4    1  0.5060607E-021  0.5000050E+01  0.7818608E-02  0.2136455E+00
        -11   -1    0    0    0    0  0.00000000000E+00  0.00000000000E+00  0.50000499739E+01  0.50000500000E+01  0.51100000000E-03 0.  1.
         11   -1    0    0    0    0 -0.00000000000E+00 -0.00000000000E+00 -0.50000499739E+01  0.50000500000E+01  0.51100000000E-03 0. -1.
         50    1    1    2    0    0  0.19237122581E-01 -0.10755703295E-01  0.37749783352E-02  0.50000500000E+01  0.50000000000E+01 0. -1.
         50    1    1    2    0    0 -0.19237122581E-01  0.10755703295E-01 -0.37749783352E-02  0.50000500000E+01  0.50000000000E+01 0.  1.
</event>
<event>
 4    1  0.5060607E-021  0.5000050E+01  0.7818608E-02  0.2136455E+00
        -11   -1    0    0    0    0  0.00000000000E+00  0.00000000000E+00  0.50000499739E+01  0.50000500000E+01  0.51100000000E-03 0. -1.
         11   -1    0    0    0    0 -0.00000000000E+00 -0.00000000000E+00 -0.50000499739E+01  0.50000500000E+01  0.51100000000E-03 0.  1.
         50    1    1    2    0    0  0.18806092558E-01 -0.17214544901E-02  0.11973720272E-01  0.50000500000E+01  0.50000000000E+01 0. -1.
         50    1    1    2    0    0 -0.18806092558E-01  0.17214544901E-02 -0.11973720272E-01  0.50000500000E+01  0.50000000000E+01 0.  1.
</event>
<event>
 4    1  0.5060607E-021  0.5000050E+01  0.7818608E-02  0.2136455E+00
        -11   -1    0    0    0    0  0.00000000000E+00  0.00000000000E+00  0.50000499739E+01  0.50000500000E+01  0.51100000000E-03 0. -1.
         11   -1    0    0    0    0 -0.00000000000E+00 -0.00000000000E+00 -0.50000499739E+01  0.50000500000E+01  0.51100000000E-03 0.  1.
         50    1    1    2    0    0 -0.12517727261E-01 -0.11939774377E-01 -0.14168655266E-01  0.50000500000E+01  0.50000000000E+01 0.  1.
         50    1    1    2    0    0  0.12517727261E-01  0.11939774377E-01  0.14168655266E-01  0.50000500000E+01  0.50000000000E+01 0. -1.
</event>
<event>
 4    1  0.5060607E-021  0.5000050E+01  0.7818608E-02  0.2136455E+00
        -11   -1    0    0    0    0  0.00000000000E+00  0.00000000000E+00  0.50000499739E+01  0.50000500000E+01  0.51100000000E-03 0.  1.
         11   -1    0    0    0    0 -0.00000000000E+00 -0.00000000000E+00 -0.50000499739E+01  0.50000500000E+01  0.51100000000E-03 0. -1.
         50    1    1    2    0    0 -0.94533476365E-03  0.28644062636E-02 -0.22156353918E-01  0.50000500000E+01  0.50000000000E+01 0. -1.
         50    1    1    2    0    0  0.94533476365E-03 -0.28644062636E-02  0.22156353918E-01  0.50000500000E+01  0.50000000000E+01 0.  0.
</event>
<event>
 4    1  0.5060607E-021  0.5000050E+01  0.7818608E-02  0.2136455E+00
        -11   -1    0    0    0    0  0.00000000000E+00  0.00000000000E+00  0.50000499739E+01  0.50000500000E+01  0.51100000000E-03 0.  1.
         11   -1    0    0    0    0 -0.00000000000E+00 -0.00000000000E+00 -0.50000499739E+01  0.50000500000E+01  0.51100000000E-03 0. -1.
         50    1    1    2    0    0  0.16856009839E-01  0.14643145407E-01  0.12065342495E-02  0.50000500000E+01  0.50000000000E+01 0. -1.
         50    1    1    2    0    0 -0.16856009839E-01 -0.14643145407E-01 -0.12065342495E-02  0.50000500000E+01  0.50000000000E+01 0.  1.
</event>
<event>
 4    1  0.5060607E-021  0.5000050E+01  0.7818608E-02  0.2136455E+00
        -11   -1    0    0    0    0  0.00000000000E+00  0.00000000000E+00  0.50000499739E+01  0.50000500000E+01  0.51100000000E-03 0.  1.
         11   -1    0    0    0    0 -0.00000000000E+00 -0.00000000000E+00 -0.50000499739E+01  0.50000500000E+01  0.51100000000E-03 0. -1.
         50    1    1    2    0    0 -0.31090858150E-02 -0.10443723161E-01 -0.19526001432E-01  0.50000500000E+01  0.50000000000E+01 0.  0.
         50    1    1    2    0    0  0.31090858150E-02  0.10443723161E-01  0.19526001432E-01  0.50000500000E+01  0.50000000000E+01 0.  1.
</event>
<event>
 4    1  0.5060607E-021  0.5000050E+01  0.7818608E-02  0.2136455E+00
        -11   -1    0    0    0    0  0.00000000000E+00  0.00000000000E+00  0.50000499739E+01  0.50000500000E+01  0.51100000000E-03 0. -1.
         11   -1    0    0    0    0 -0.00000000000E+00 -0.00000000000E+00 -0.50000499739E+01  0.50000500000E+01  0.51100000000E-03 0.  1.
         50    1    1    2    0    0  0.21267112764E-01 -0.68059739336E-02 -0.11794632252E-02  0.50000500000E+01  0.50000000000E+01 0.  0.
         50    1    1    2    0    0 -0.21267112764E-01  0.68059739336E-02  0.11794632252E-02  0.50000500000E+01  0.50000000000E+01 0. -1.
</event>
<event>
 4    1  0.5060607E-021  0.5000050E+01  0.7818608E-02  0.2136455E+00
        -11   -1    0    0    0    0  0.00000000000E+00  0.00000000000E+00  0.50000499739E+01  0.50000500000E+01  0.51100000000E-03 0. -1.
         11   -1    0    0    0    0 -0.00000000000E+00 -0.00000000000E+00 -0.50000499739E+01  0.50000500000E+01  0.51100000000E-03 0.  1.
         50    1    1    2    0    0  0.12905604219E-01  0.25242126144E-02  0.18085248973E-01  0.50000500000E+01  0.50000000000E+01 0. -1.
         50    1    1    2    0    0 -0.12905604219E-01 -0.25242126144E-02 -0.18085248973E-01  0.50000500000E+01  0.50000000000E+01 0.  1.
</event>
<event>
 4    1  0.5060607E-021  0.5000050E+01  0.7818608E-02  0.2136455E+00
        -11   -1    0    0    0    0  0.00000000000E+00  0.00000000000E+00  0.50000499739E+01  0.50000500000E+01  0.51100000000E-03 0. -1.
         11   -1    0    0    0    0 -0.00000000000E+00 -0.00000000000E+00 -0.50000499739E+01  0.50000500000E+01  0.51100000000E-03 0.  1.
         50    1    1    2    0    0  0.13864234386E-01  0.17463314063E-01 -0.16787396600E-02  0.50000500000E+01  0.50000000000E+01 0.  1.
         50    1    1    2    0    0 -0.13864234386E-01 -0.17463314063E-01  0.16787396600E-02  0.50000500000E+01  0.50000000000E+01 0. -1.
</event>
<event>
 4    1  0.5060607E-021  0.5000050E+01  0.7818608E-02  0.2136455E+00
        -11   -1    0    0    0    0  0.00000000000E+00  0.00000000000E+00  0.50000499739E+01  0.50000500000E+01  0.51100000000E-03 0.  1.
         11   -1    0    0    0    0 -0.00000000000E+00 -0.00000000000E+00 -0.50000499739E+01  0.50000500000E+01  0.51100000000E-03 0. -1.
         50    1    1    2    0    0  0.22007000767E-01 -0.15286483117E-02  0.36548121111E-02  0.50000500000E+01  0.50000000000E+01 0.  1.
         50    1    1    2    0    0 -0.22007000767E-01  0.15286483117E-02 -0.36548121111E-02  0.50000500000E+01  0.50000000000E+01 0. -1.
</event>
<event>
 4    1  0.5060607E-021  0.5000050E+01  0.7818608E-02  0.2136455E+00
        -11   -1    0    0    0    0  0.00000000000E+00  0.00000000000E+00  0.50000499739E+01  0.50000500000E+01  0.51100000000E-03 0.  1.
         11   -1    0    0    0    0 -0.00000000000E+00 -0.00000000000E+00 -0.50000499739E+01  0.50000500000E+01  0.51100000000E-03 0. -1.
         50    1    1    2    0    0  0.24300344862E-02 -0.12072643703E-02 -0.22195493802E-01  0.50000500000E+01  0.50000000000E+01 0.  0.
         50    1    1    2    0    0 -0.24300344862E-02  0.12072643703E-02  0.22195493802E-01  0.50000500000E+01  0.50000000000E+01 0.  1.
</event>
<event>
 4    1  0.5060607E-021  0.5000050E+01  0.7818608E-02  0.2136455E+00
        -11   -1    0    0    0    0  0.00000000000E+00  0.00000000000E+00  0.50000499739E+01  0.50000500000E+01  0.51100000000E-03 0. -1.
         11   -1    0    0    0    0 -0.00000000000E+00 -0.00000000000E+00 -0.50000499739E+01  0.50000500000E+01  0.51100000000E-03 0.  1.
         50    1    1    2    0    0  0.17858594071E-01 -0.84250856950E-02 -0.10492428167E-01  0.50000500000E+01  0.50000000000E+01 0.  1.
         50    1    1    2    0    0 -0.17858594071E-01  0.84250856950E-02  0.10492428167E-01  0.50000500000E+01  0.50000000000E+01 0. -1.
</event>
<event>
 4    1  0.5060607E-021  0.5000050E+01  0.7818608E-02  0.2136455E+00
        -11   -1    0    0    0    0  0.00000000000E+00  0.00000000000E+00  0.50000499739E+01  0.50000500000E+01  0.51100000000E-03 0. -1.
         11   -1    0    0    0    0 -0.00000000000E+00 -0.00000000000E+00 -0.50000499739E+01  0.50000500000E+01  0.51100000000E-03 0.  1.
         50    1    1    2    0    0  0.14517291873E-01  0.11216289127E-01 -0.12784584267E-01  0.50000500000E+01  0.50000000000E+01 0.  1.
         50    1    1    2    0    0 -0.14517291873E-01 -0.11216289127E-01  0.12784584267E-01  0.50000500000E+01  0.50000000000E+01 0. -1.
</event>
<event>
 4    1  0.5060607E-021  0.5000050E+01  0.7818608E-02  0.2136455E+00
        -11   -1    0    0    0    0  0.00000000000E+00  0.00000000000E+00  0.50000499739E+01  0.50000500000E+01  0.51100000000E-03 0. -1.
         11   -1    0    0    0    0 -0.00000000000E+00 -0.00000000000E+00 -0.50000499739E+01  0.50000500000E+01  0.51100000000E-03 0.  1.
         50    1    1    2    0    0  0.96119703531E-02 -0.18998871561E-01  0.68304762172E-02  0.50000500000E+01  0.50000000000E+01 0.  1.
         50    1    1    2    0    0 -0.96119703531E-02  0.18998871561E-01 -0.68304762172E-02  0.50000500000E+01  0.50000000000E+01 0.  0.
</event>
<event>
 4    1  0.5060607E-021  0.5000050E+01  0.7818608E-02  0.2136455E+00
        -11   -1    0    0    0    0  0.00000000000E+00  0.00000000000E+00  0.50000499739E+01  0.50000500000E+01  0.51100000000E-03 0. -1.
         11   -1    0    0    0    0 -0.00000000000E+00 -0.00000000000E+00 -0.50000499739E+01  0.50000500000E+01  0.51100000000E-03 0.  1.
         50    1    1    2    0    0 -0.19430124059E-02 -0.21922852822E-01 -0.39516739381E-02  0.50000500000E+01  0.50000000000E+01 0.  1.
         50    1    1    2    0    0  0.19430124059E-02  0.21922852822E-01  0.39516739381E-02  0.50000500000E+01  0.50000000000E+01 0. -1.
</event>
<event>
 4    1  0.5060607E-021  0.5000050E+01  0.7818608E-02  0.2136455E+00
        -11   -1    0    0    0    0  0.00000000000E+00  0.00000000000E+00  0.50000499739E+01  0.50000500000E+01  0.51100000000E-03 0.  1.
         11   -1    0    0    0    0 -0.00000000000E+00 -0.00000000000E+00 -0.50000499739E+01  0.50000500000E+01  0.51100000000E-03 0. -1.
         50    1    1    2    0    0  0.19582964386E-01  0.58385612690E-02 -0.90786126778E-02  0.50000500000E+01  0.50000000000E+01 0.  0.
         50    1    1    2    0    0 -0.19582964386E-01 -0.58385612690E-02  0.90786126778E-02  0.50000500000E+01  0.50000000000E+01 0.  1.
</event>
<event>
 4    1  0.5060607E-021  0.5000050E+01  0.7818608E-02  0.2136455E+00
        -11   -1    0    0    0    0  0.00000000000E+00  0.00000000000E+00  0.50000499739E+01  0.50000500000E+01  0.51100000000E-03 0. -1.
         11   -1    0    0    0    0 -0.00000000000E+00 -0.00000000000E+00 -0.50000499739E+01  0.50000500000E+01  0.51100000000E-03 0.  1.
         50    1    1    2    0    0 -0.40561185328E-02 -0.21040506639E-01 -0.63912035506E-02  0.50000500000E+01  0.50000000000E+01 0.  0.
         50    1    1    2    0    0  0.40561185328E-02  0.21040506639E-01  0.63912035506E-02  0.50000500000E+01  0.50000000000E+01 0.  0.
</event>
<event>
 4    1  0.5060607E-021  0.5000050E+01  0.7818608E-02  0.2136455E+00
        -11   -1    0    0    0    0  0.00000000000E+00  0.00000000000E+00  0.50000499739E+01  0.50000500000E+01  0.51100000000E-03 0.  1.
         11   -1    0    0    0    0 -0.00000000000E+00 -0.00000000000E+00 -0.50000499739E+01  0.50000500000E+01  0.51100000000E-03 0. -1.
         50    1    1    2    0    0 -0.75464872874E-02  0.84139214100E-02  0.19294013479E-01  0.50000500000E+01  0.50000000000E+01 0. -1.
         50    1    1    2    0    0  0.75464872874E-02 -0.84139214100E-02 -0.19294013479E-01  0.50000500000E+01  0.50000000000E+01 0. -1.
</event>
<event>
 4    1  0.5060607E-021  0.5000050E+01  0.7818608E-02  0.2136455E+00
        -11   -1    0    0    0    0  0.00000000000E+00  0.00000000000E+00  0.50000499739E+01  0.50000500000E+01  0.51100000000E-03 0.  1.
         11   -1    0    0    0    0 -0.00000000000E+00 -0.00000000000E+00 -0.50000499739E+01  0.50000500000E+01  0.51100000000E-03 0. -1.
         50    1    1    2    0    0  0.12565457546E-01 -0.16761226468E-01 -0.78213211123E-02  0.50000500000E+01  0.50000000000E+01 0. -1.
         50    1    1    2    0    0 -0.12565457546E-01  0.16761226468E-01  0.78213211123E-02  0.50000500000E+01  0.50000000000E+01 0.  1.
</event>
<event>
 4    1  0.5060607E-021  0.5000050E+01  0.7818608E-02  0.2136455E+00
        -11   -1    0    0    0    0  0.00000000000E+00  0.00000000000E+00  0.50000499739E+01  0.50000500000E+01  0.51100000000E-03 0.  1.
         11   -1    0    0    0    0 -0.00000000000E+00 -0.00000000000E+00 -0.50000499739E+01  0.50000500000E+01  0.51100000000E-03 0. -1.
         50    1    1    2    0    0 -0.16617044831E-01  0.17792894993E-02 -0.14856326934E-01  0.50000500000E+01  0.50000000000E+01 0. -1.
         50    1    1    2    0    0  0.16617044831E-01 -0.17792894993E-02  0.14856326934E-01  0.50000500000E+01  0.50000000000E+01 0.  1.
</event>
<event>
 4    1  0.5060607E-021  0.5000050E+01  0.7818608E-02  0.2136455E+00
        -11   -1    0    0    0    0  0.00000000000E+00  0.00000000000E+00  0.50000499739E+01  0.50000500000E+01  0.51100000000E-03 0. -1.
         11   -1    0    0    0    0 -0.00000000000E+00 -0.00000000000E+00 -0.50000499739E+01  0.50000500000E+01  0.51100000000E-03 0.  1.
         50    1    1    2    0    0  0.13583005674E-01  0.83611967628E-02  0.15671465967E-01  0.50000500000E+01  0.50000000000E+01 0.  0.
         50    1    1    2    0    0 -0.13583005674E-01 -0.83611967628E-02 -0.15671465967E-01  0.50000500000E+01  0.50000000000E+01 0.  0.
</event>
<event>
 4    1  0.5060607E-021  0.5000050E+01  0.7818608E-02  0.2136455E+00
        -11   -1    0    0    0    0  0.00000000000E+00  0.00000000000E+00  0.50000499739E+01  0.50000500000E+01  0.51100000000E-03 0. -1.
         11   -1    0    0    0    0 -0.00000000000E+00 -0.00000000000E+00 -0.50000499739E+01  0.50000500000E+01  0.51100000000E-03 0.  1.
         50    1    1    2    0    0 -0.14920873753E-01 -0.14126440530E-01 -0.88212076491E-02  0.50000500000E+01  0.50000000000E+01 0.  1.
         50    1    1    2    0    0  0.14920873753E-01  0.14126440530E-01  0.88212076491E-02  0.50000500000E+01  0.50000000000E+01 0. -1.
</event>
<event>
 4    1  0.5060607E-021  0.5000050E+01  0.7818608E-02  0.2136455E+00
        -11   -1    0    0    0    0  0.00000000000E+00  0.00000000000E+00  0.50000499739E+01  0.50000500000E+01  0.51100000000E-03 0. -1.
         11   -1    0    0    0    0 -0.00000000000E+00 -0.00000000000E+00 -0.50000499739E+01  0.50000500000E+01  0.51100000000E-03 0.  1.
         50    1    1    2    0    0 -0.83019547391E-02 -0.20592055925E-01  0.26546714106E-02  0.50000500000E+01  0.50000000000E+01 0.  0.
         50    1    1    2    0    0  0.83019547391E-02  0.20592055925E-01 -0.26546714106E-02  0.50000500000E+01  0.50000000000E+01 0. -1.
</event>
<event>
 4    1  0.5060607E-021  0.5000050E+01  0.7818608E-02  0.2136455E+00
        -11   -1    0    0    0    0  0.00000000000E+00  0.00000000000E+00  0.50000499739E+01  0.50000500000E+01  0.51100000000E-03 0. -1.
         11   -1    0    0    0    0 -0.00000000000E+00 -0.00000000000E+00 -0.50000499739E+01  0.50000500000E+01  0.51100000000E-03 0.  1.
         50    1    1    2    0    0 -0.13027506965E-01  0.18100030892E-01 -0.16356784544E-02  0.50000500000E+01  0.50000000000E+01 0.  0.
         50    1    1    2    0    0  0.13027506965E-01 -0.18100030892E-01  0.16356784544E-02  0.50000500000E+01  0.50000000000E+01 0.  1.
</event>
<event>
 4    1  0.5060607E-021  0.5000050E+01  0.7818608E-02  0.2136455E+00
        -11   -1    0    0    0    0  0.00000000000E+00  0.00000000000E+00  0.50000499739E+01  0.50000500000E+01  0.51100000000E-03 0. -1.
         11   -1    0    0    0    0 -0.00000000000E+00 -0.00000000000E+00 -0.50000499739E+01  0.50000500000E+01  0.51100000000E-03 0.  1.
         50    1    1    2    0    0 -0.46236624414E-02  0.62270675033E-02  0.20972550535E-01  0.50000500000E+01  0.50000000000E+01 0.  0.
         50    1    1    2    0    0  0.46236624414E-02 -0.62270675033E-02 -0.20972550535E-01  0.50000500000E+01  0.50000000000E+01 0.  1.
</event>
<event>
 4    1  0.5060607E-021  0.5000050E+01  0.7818608E-02  0.2136455E+00
        -11   -1    0    0    0    0  0.00000000000E+00  0.00000000000E+00  0.50000499739E+01  0.50000500000E+01  0.51100000000E-03 0. -1.
         11   -1    0    0    0    0 -0.00000000000E+00 -0.00000000000E+00 -0.50000499739E+01  0.50000500000E+01  0.51100000000E-03 0.  1.
         50    1    1    2    0    0  0.10580721667E-01  0.10200981040E-01  0.16852027024E-01  0.50000500000E+01  0.50000000000E+01 0.  1.
         50    1    1    2    0    0 -0.10580721667E-01 -0.10200981040E-01 -0.16852027024E-01  0.50000500000E+01  0.50000000000E+01 0. -1.
</event>
<event>
 4    1  0.5060607E-021  0.5000050E+01  0.7818608E-02  0.2136455E+00
        -11   -1    0    0    0    0  0.00000000000E+00  0.00000000000E+00  0.50000499739E+01  0.50000500000E+01  0.51100000000E-03 0.  1.
         11   -1    0    0    0    0 -0.00000000000E+00 -0.00000000000E+00 -0.50000499739E+01  0.50000500000E+01  0.51100000000E-03 0. -1.
         50    1    1    2    0    0 -0.72156783832E-02 -0.60107057923E-03  0.21155973143E-01  0.50000500000E+01  0.50000000000E+01 0.  0.
         50    1    1    2    0    0  0.72156783832E-02  0.60107057923E-03 -0.21155973143E-01  0.50000500000E+01  0.50000000000E+01 0. -1.
</event>
<event>
 4    1  0.5060607E-021  0.5000050E+01  0.7818608E-02  0.2136455E+00
        -11   -1    0    0    0    0  0.00000000000E+00  0.00000000000E+00  0.50000499739E+01  0.50000500000E+01  0.51100000000E-03 0.  1.
         11   -1    0    0    0    0 -0.00000000000E+00 -0.00000000000E+00 -0.50000499739E+01  0.50000500000E+01  0.51100000000E-03 0. -1.
         50    1    1    2    0    0  0.50399078410E-02 -0.20508529311E-01 -0.73486090150E-02  0.50000500000E+01  0.50000000000E+01 0. -1.
         50    1    1    2    0    0 -0.50399078410E-02  0.20508529311E-01  0.73486090150E-02  0.50000500000E+01  0.50000000000E+01 0.  1.
</event>
<event>
 4    1  0.5060607E-021  0.5000050E+01  0.7818608E-02  0.2136455E+00
        -11   -1    0    0    0    0  0.00000000000E+00  0.00000000000E+00  0.50000499739E+01  0.50000500000E+01  0.51100000000E-03 0.  1.
         11   -1    0    0    0    0 -0.00000000000E+00 -0.00000000000E+00 -0.50000499739E+01  0.50000500000E+01  0.51100000000E-03 0. -1.
         50    1    1    2    0    0  0.91656672172E-02  0.63428030115E-02  0.19384578778E-01  0.50000500000E+01  0.50000000000E+01 0.  0.
         50    1    1    2    0    0 -0.91656672172E-02 -0.63428030115E-02 -0.19384578778E-01  0.50000500000E+01  0.50000000000E+01 0.  0.
</event>
<event>
 4    1  0.5060607E-021  0.5000050E+01  0.7818608E-02  0.2136455E+00
        -11   -1    0    0    0    0  0.00000000000E+00  0.00000000000E+00  0.50000499739E+01  0.50000500000E+01  0.51100000000E-03 0. -1.
         11   -1    0    0    0    0 -0.00000000000E+00 -0.00000000000E+00 -0.50000499739E+01  0.50000500000E+01  0.51100000000E-03 0.  1.
         50    1    1    2    0    0  0.86001579540E-03 -0.15637078385E-01  0.15960722177E-01  0.50000500000E+01  0.50000000000E+01 0.  0.
         50    1    1    2    0    0 -0.86001579540E-03  0.15637078385E-01 -0.15960722177E-01  0.50000500000E+01  0.50000000000E+01 0.  1.
</event>
<event>
 4    1  0.5060607E-021  0.5000050E+01  0.7818608E-02  0.2136455E+00
        -11   -1    0    0    0    0  0.00000000000E+00  0.00000000000E+00  0.50000499739E+01  0.50000500000E+01  0.51100000000E-03 0.  1.
         11   -1    0    0    0    0 -0.00000000000E+00 -0.00000000000E+00 -0.50000499739E+01  0.50000500000E+01  0.51100000000E-03 0. -1.
         50    1    1    2    0    0 -0.16569576267E-01  0.13703534884E-01 -0.61371633521E-02  0.50000500000E+01  0.50000000000E+01 0.  1.
         50    1    1    2    0    0  0.16569576267E-01 -0.13703534884E-01  0.61371633521E-02  0.50000500000E+01  0.50000000000E+01 0. -1.
</event>
<event>
 4    1  0.5060607E-021  0.5000050E+01  0.7818608E-02  0.2136455E+00
        -11   -1    0    0    0    0  0.00000000000E+00  0.00000000000E+00  0.50000499739E+01  0.50000500000E+01  0.51100000000E-03 0. -1.
         11   -1    0    0    0    0 -0.00000000000E+00 -0.00000000000E+00 -0.50000499739E+01  0.50000500000E+01  0.51100000000E-03 0.  1.
         50    1    1    2    0    0 -0.14152544598E-01  0.10348264034E-01  0.13878811652E-01  0.50000500000E+01  0.50000000000E+01 0.  0.
         50    1    1    2    0    0  0.14152544598E-01 -0.10348264034E-01 -0.13878811652E-01  0.50000500000E+01  0.50000000000E+01 0.  0.
</event>
<event>
 4    1  0.5060607E-021  0.5000050E+01  0.7818608E-02  0.2136455E+00
        -11   -1    0    0    0    0  0.00000000000E+00  0.00000000000E+00  0.50000499739E+01  0.50000500000E+01  0.51100000000E-03 0. -1.
         11   -1    0    0    0    0 -0.00000000000E+00 -0.00000000000E+00 -0.50000499739E+01  0.50000500000E+01  0.51100000000E-03 0.  1.
         50    1    1    2    0    0 -0.58452515967E-02 -0.21128326433E-01  0.44078743088E-02  0.50000500000E+01  0.50000000000E+01 0.  0.
         50    1    1    2    0    0  0.58452515967E-02  0.21128326433E-01 -0.44078743088E-02  0.50000500000E+01  0.50000000000E+01 0. -1.
</event>
<event>
 4    1  0.5060607E-021  0.5000050E+01  0.7818608E-02  0.2136455E+00
        -11   -1    0    0    0    0  0.00000000000E+00  0.00000000000E+00  0.50000499739E+01  0.50000500000E+01  0.51100000000E-03 0. -1.
         11   -1    0    0    0    0 -0.00000000000E+00 -0.00000000000E+00 -0.50000499739E+01  0.50000500000E+01  0.51100000000E-03 0.  1.
         50    1    1    2    0    0 -0.20257271570E-01 -0.36068432668E-02  0.87542064270E-02  0.50000500000E+01  0.50000000000E+01 0.  0.
         50    1    1    2    0    0  0.20257271570E-01  0.36068432668E-02 -0.87542064270E-02  0.50000500000E+01  0.50000000000E+01 0.  0.
</event>
<event>
 4    1  0.5060607E-021  0.5000050E+01  0.7818608E-02  0.2136455E+00
        -11   -1    0    0    0    0  0.00000000000E+00  0.00000000000E+00  0.50000499739E+01  0.50000500000E+01  0.51100000000E-03 0.  1.
         11   -1    0    0    0    0 -0.00000000000E+00 -0.00000000000E+00 -0.50000499739E+01  0.50000500000E+01  0.51100000000E-03 0. -1.
         50    1    1    2    0    0 -0.15433372429E-01  0.16152329241E-01 -0.95696161929E-03  0.50000500000E+01  0.50000000000E+01 0. -1.
         50    1    1    2    0    0  0.15433372429E-01 -0.16152329241E-01  0.95696161929E-03  0.50000500000E+01  0.50000000000E+01 0.  1.
</event>
<event>
 4    1  0.5060607E-021  0.5000050E+01  0.7818608E-02  0.2136455E+00
        -11   -1    0    0    0    0  0.00000000000E+00  0.00000000000E+00  0.50000499739E+01  0.50000500000E+01  0.51100000000E-03 0. -1.
         11   -1    0    0    0    0 -0.00000000000E+00 -0.00000000000E+00 -0.50000499739E+01  0.50000500000E+01  0.51100000000E-03 0.  1.
         50    1    1    2    0    0 -0.64991321285E-02  0.66913020958E-02  0.20322161741E-01  0.50000500000E+01  0.50000000000E+01 0. -1.
         50    1    1    2    0    0  0.64991321285E-02 -0.66913020958E-02 -0.20322161741E-01  0.50000500000E+01  0.50000000000E+01 0.  0.
</event>
<event>
 4    1  0.5060607E-021  0.5000050E+01  0.7818608E-02  0.2136455E+00
        -11   -1    0    0    0    0  0.00000000000E+00  0.00000000000E+00  0.50000499739E+01  0.50000500000E+01  0.51100000000E-03 0. -1.
         11   -1    0    0    0    0 -0.00000000000E+00 -0.00000000000E+00 -0.50000499739E+01  0.50000500000E+01  0.51100000000E-03 0.  1.
         50    1    1    2    0    0  0.21436112156E-01 -0.44896746779E-02  0.45098134041E-02  0.50000500000E+01  0.50000000000E+01 0. -1.
         50    1    1    2    0    0 -0.21436112156E-01  0.44896746779E-02 -0.45098134041E-02  0.50000500000E+01  0.50000000000E+01 0.  0.
</event>
<event>
 4    1  0.5060607E-021  0.5000050E+01  0.7818608E-02  0.2136455E+00
        -11   -1    0    0    0    0  0.00000000000E+00  0.00000000000E+00  0.50000499739E+01  0.50000500000E+01  0.51100000000E-03 0.  1.
         11   -1    0    0    0    0 -0.00000000000E+00 -0.00000000000E+00 -0.50000499739E+01  0.50000500000E+01  0.51100000000E-03 0. -1.
         50    1    1    2    0    0  0.37733216882E-02  0.15105065743E-01  0.16049969855E-01  0.50000500000E+01  0.50000000000E+01 0.  1.
         50    1    1    2    0    0 -0.37733216882E-02 -0.15105065743E-01 -0.16049969855E-01  0.50000500000E+01  0.50000000000E+01 0. -1.
</event>
<event>
 4    1  0.5060607E-021  0.5000050E+01  0.7818608E-02  0.2136455E+00
        -11   -1    0    0    0    0  0.00000000000E+00  0.00000000000E+00  0.50000499739E+01  0.50000500000E+01  0.51100000000E-03 0.  1.
         11   -1    0    0    0    0 -0.00000000000E+00 -0.00000000000E+00 -0.50000499739E+01  0.50000500000E+01  0.51100000000E-03 0. -1.
         50    1    1    2    0    0 -0.19155648029E-01 -0.32613593331E-02 -0.11064681825E-01  0.50000500000E+01  0.50000000000E+01 0. -1.
         50    1    1    2    0    0  0.19155648029E-01  0.32613593331E-02  0.11064681825E-01  0.50000500000E+01  0.50000000000E+01 0.  1.
</event>
<event>
 4    1  0.5060607E-021  0.5000050E+01  0.7818608E-02  0.2136455E+00
        -11   -1    0    0    0    0  0.00000000000E+00  0.00000000000E+00  0.50000499739E+01  0.50000500000E+01  0.51100000000E-03 0.  1.
         11   -1    0    0    0    0 -0.00000000000E+00 -0.00000000000E+00 -0.50000499739E+01  0.50000500000E+01  0.51100000000E-03 0. -1.
         50    1    1    2    0    0 -0.17650505163E-01 -0.22166812306E-02  0.13548006932E-01  0.50000500000E+01  0.50000000000E+01 0.  1.
         50    1    1    2    0    0  0.17650505163E-01  0.22166812306E-02 -0.13548006932E-01  0.50000500000E+01  0.50000000000E+01 0. -1.
</event>
<event>
 4    1  0.5060607E-021  0.5000050E+01  0.7818608E-02  0.2136455E+00
        -11   -1    0    0    0    0  0.00000000000E+00  0.00000000000E+00  0.50000499739E+01  0.50000500000E+01  0.51100000000E-03 0.  1.
         11   -1    0    0    0    0 -0.00000000000E+00 -0.00000000000E+00 -0.50000499739E+01  0.50000500000E+01  0.51100000000E-03 0. -1.
         50    1    1    2    0    0 -0.86784875212E-03 -0.63363338069E-02  0.21426623916E-01  0.50000500000E+01  0.50000000000E+01 0.  0.
         50    1    1    2    0    0  0.86784875212E-03  0.63363338069E-02 -0.21426623916E-01  0.50000500000E+01  0.50000000000E+01 0. -1.
</event>
<event>
 4    1  0.5060607E-021  0.5000050E+01  0.7818608E-02  0.2136455E+00
        -11   -1    0    0    0    0  0.00000000000E+00  0.00000000000E+00  0.50000499739E+01  0.50000500000E+01  0.51100000000E-03 0. -1.
         11   -1    0    0    0    0 -0.00000000000E+00 -0.00000000000E+00 -0.50000499739E+01  0.50000500000E+01  0.51100000000E-03 0.  1.
         50    1    1    2    0    0 -0.57379825859E-02 -0.14755730534E-01  0.15790708415E-01  0.50000500000E+01  0.50000000000E+01 0.  0.
         50    1    1    2    0    0  0.57379825859E-02  0.14755730534E-01 -0.15790708415E-01  0.50000500000E+01  0.50000000000E+01 0.  0.
</event>
<event>
 4    1  0.5060607E-021  0.5000050E+01  0.7818608E-02  0.2136455E+00
        -11   -1    0    0    0    0  0.00000000000E+00  0.00000000000E+00  0.50000499739E+01  0.50000500000E+01  0.51100000000E-03 0. -1.
         11   -1    0    0    0    0 -0.00000000000E+00 -0.00000000000E+00 -0.50000499739E+01  0.50000500000E+01  0.51100000000E-03 0.  1.
         50    1    1    2    0    0 -0.34132588149E-02 -0.18247750996E-01  0.12464820410E-01  0.50000500000E+01  0.50000000000E+01 0.  0.
         50    1    1    2    0    0  0.34132588149E-02  0.18247750996E-01 -0.12464820410E-01  0.50000500000E+01  0.50000000000E+01 0.  0.
</event>
<event>
 4    1  0.5060607E-021  0.5000050E+01  0.7818608E-02  0.2136455E+00
        -11   -1    0    0    0    0  0.00000000000E+00  0.00000000000E+00  0.50000499739E+01  0.50000500000E+01  0.51100000000E-03 0. -1.
         11   -1    0    0    0    0 -0.00000000000E+00 -0.00000000000E+00 -0.50000499739E+01  0.50000500000E+01  0.51100000000E-03 0.  1.
         50    1    1    2    0    0 -0.16004506034E-01  0.12529851782E-01 -0.93199303064E-02  0.50000500000E+01  0.50000000000E+01 0.  0.
         50    1    1    2    0    0  0.16004506034E-01 -0.12529851782E-01  0.93199303064E-02  0.50000500000E+01  0.50000000000E+01 0.  0.
</event>
<event>
 4    1  0.5060607E-021  0.5000050E+01  0.7818608E-02  0.2136455E+00
        -11   -1    0    0    0    0  0.00000000000E+00  0.00000000000E+00  0.50000499739E+01  0.50000500000E+01  0.51100000000E-03 0. -1.
         11   -1    0    0    0    0 -0.00000000000E+00 -0.00000000000E+00 -0.50000499739E+01  0.50000500000E+01  0.51100000000E-03 0.  1.
         50    1    1    2    0    0  0.12517924567E-01  0.11033103240E-01  0.14885385363E-01  0.50000500000E+01  0.50000000000E+01 0. -1.
         50    1    1    2    0    0 -0.12517924567E-01 -0.11033103240E-01 -0.14885385363E-01  0.50000500000E+01  0.50000000000E+01 0.  1.
</event>
<event>
 4    1  0.5060607E-021  0.5000050E+01  0.7818608E-02  0.2136455E+00
        -11   -1    0    0    0    0  0.00000000000E+00  0.00000000000E+00  0.50000499739E+01  0.50000500000E+01  0.51100000000E-03 0. -1.
         11   -1    0    0    0    0 -0.00000000000E+00 -0.00000000000E+00 -0.50000499739E+01  0.50000500000E+01  0.51100000000E-03 0.  1.
         50    1    1    2    0    0  0.10434723685E-01 -0.11104398217E-01  0.16364943687E-01  0.50000500000E+01  0.50000000000E+01 0.  1.
         50    1    1    2    0    0 -0.10434723685E-01  0.11104398217E-01 -0.16364943687E-01  0.50000500000E+01  0.50000000000E+01 0. -1.
</event>
<event>
 4    1  0.5060607E-021  0.5000050E+01  0.7818608E-02  0.2136455E+00
        -11   -1    0    0    0    0  0.00000000000E+00  0.00000000000E+00  0.50000499739E+01  0.50000500000E+01  0.51100000000E-03 0.  1.
         11   -1    0    0    0    0 -0.00000000000E+00 -0.00000000000E+00 -0.50000499739E+01  0.50000500000E+01  0.51100000000E-03 0. -1.
         50    1    1    2    0    0 -0.11931551913E-01  0.61788909802E-02 -0.17873496446E-01  0.50000500000E+01  0.50000000000E+01 0. -1.
         50    1    1    2    0    0  0.11931551913E-01 -0.61788909802E-02  0.17873496446E-01  0.50000500000E+01  0.50000000000E+01 0.  1.
</event>
<event>
 4    1  0.5060607E-021  0.5000050E+01  0.7818608E-02  0.2136455E+00
        -11   -1    0    0    0    0  0.00000000000E+00  0.00000000000E+00  0.50000499739E+01  0.50000500000E+01  0.51100000000E-03 0.  1.
         11   -1    0    0    0    0 -0.00000000000E+00 -0.00000000000E+00 -0.50000499739E+01  0.50000500000E+01  0.51100000000E-03 0. -1.
         50    1    1    2    0    0  0.20668054494E-01  0.32361945908E-02 -0.78969024300E-02  0.50000500000E+01  0.50000000000E+01 0.  1.
         50    1    1    2    0    0 -0.20668054494E-01 -0.32361945908E-02  0.78969024300E-02  0.50000500000E+01  0.50000000000E+01 0.  0.
</event>
<event>
 4    1  0.5060607E-021  0.5000050E+01  0.7818608E-02  0.2136455E+00
        -11   -1    0    0    0    0  0.00000000000E+00  0.00000000000E+00  0.50000499739E+01  0.50000500000E+01  0.51100000000E-03 0.  1.
         11   -1    0    0    0    0 -0.00000000000E+00 -0.00000000000E+00 -0.50000499739E+01  0.50000500000E+01  0.51100000000E-03 0. -1.
         50    1    1    2    0    0  0.15456661567E-01 -0.14261118249E-01  0.75970138536E-02  0.50000500000E+01  0.50000000000E+01 0.  1.
         50    1    1    2    0    0 -0.15456661567E-01  0.14261118249E-01 -0.75970138536E-02  0.50000500000E+01  0.50000000000E+01 0. -1.
</event>
<event>
 4    1  0.5060607E-021  0.5000050E+01  0.7818608E-02  0.2136455E+00
        -11   -1    0    0    0    0  0.00000000000E+00  0.00000000000E+00  0.50000499739E+01  0.50000500000E+01  0.51100000000E-03 0. -1.
         11   -1    0    0    0    0 -0.00000000000E+00 -0.00000000000E+00 -0.50000499739E+01  0.50000500000E+01  0.51100000000E-03 0.  1.
         50    1    1    2    0    0  0.95352232428E-02  0.52782663713E-02  0.19524905168E-01  0.50000500000E+01  0.50000000000E+01 0.  0.
         50    1    1    2    0    0 -0.95352232428E-02 -0.52782663713E-02 -0.19524905168E-01  0.50000500000E+01  0.50000000000E+01 0.  0.
</event>
<event>
 4    1  0.5060607E-021  0.5000050E+01  0.7818608E-02  0.2136455E+00
        -11   -1    0    0    0    0  0.00000000000E+00  0.00000000000E+00  0.50000499739E+01  0.50000500000E+01  0.51100000000E-03 0.  1.
         11   -1    0    0    0    0 -0.00000000000E+00 -0.00000000000E+00 -0.50000499739E+01  0.50000500000E+01  0.51100000000E-03 0. -1.
         50    1    1    2    0    0  0.15015248328E-01  0.14369917583E-01 -0.82492597422E-02  0.50000500000E+01  0.50000000000E+01 0.  1.
         50    1    1    2    0    0 -0.15015248328E-01 -0.14369917583E-01  0.82492597422E-02  0.50000500000E+01  0.50000000000E+01 0. -1.
</event>
<event>
 4    1  0.5060607E-021  0.5000050E+01  0.7818608E-02  0.2136455E+00
        -11   -1    0    0    0    0  0.00000000000E+00  0.00000000000E+00  0.50000499739E+01  0.50000500000E+01  0.51100000000E-03 0. -1.
         11   -1    0    0    0    0 -0.00000000000E+00 -0.00000000000E+00 -0.50000499739E+01  0.50000500000E+01  0.51100000000E-03 0.  1.
         50    1    1    2    0    0 -0.10425645497E-01 -0.74544634612E-02 -0.18323192693E-01  0.50000500000E+01  0.50000000000E+01 0.  0.
         50    1    1    2    0    0  0.10425645497E-01  0.74544634612E-02  0.18323192693E-01  0.50000500000E+01  0.50000000000E+01 0.  0.
</event>
<event>
 4    1  0.5060607E-021  0.5000050E+01  0.7818608E-02  0.2136455E+00
        -11   -1    0    0    0    0  0.00000000000E+00  0.00000000000E+00  0.50000499739E+01  0.50000500000E+01  0.51100000000E-03 0. -1.
         11   -1    0    0    0    0 -0.00000000000E+00 -0.00000000000E+00 -0.50000499739E+01  0.50000500000E+01  0.51100000000E-03 0.  1.
         50    1    1    2    0    0 -0.79657327722E-02 -0.20700252302E-01 -0.28371034617E-02  0.50000500000E+01  0.50000000000E+01 0. -1.
         50    1    1    2    0    0  0.79657327722E-02  0.20700252302E-01  0.28371034617E-02  0.50000500000E+01  0.50000000000E+01 0.  0.
</event>
<event>
 4    1  0.5060607E-021  0.5000050E+01  0.7818608E-02  0.2136455E+00
        -11   -1    0    0    0    0  0.00000000000E+00  0.00000000000E+00  0.50000499739E+01  0.50000500000E+01  0.51100000000E-03 0. -1.
         11   -1    0    0    0    0 -0.00000000000E+00 -0.00000000000E+00 -0.50000499739E+01  0.50000500000E+01  0.51100000000E-03 0.  1.
         50    1    1    2    0    0  0.78848507257E-02  0.18861772067E-01  0.90589835803E-02  0.50000500000E+01  0.50000000000E+01 0. -1.
         50    1    1    2    0    0 -0.78848507257E-02 -0.18861772067E-01 -0.90589835803E-02  0.50000500000E+01  0.50000000000E+01 0.  1.
</event>
<event>
 4    1  0.5060607E-021  0.5000050E+01  0.7818608E-02  0.2136455E+00
        -11   -1    0    0    0    0  0.00000000000E+00  0.00000000000E+00  0.50000499739E+01  0.50000500000E+01  0.51100000000E-03 0.  1.
         11   -1    0    0    0    0 -0.00000000000E+00 -0.00000000000E+00 -0.50000499739E+01  0.50000500000E+01  0.51100000000E-03 0. -1.
         50    1    1    2    0    0 -0.16675527404E-01  0.50649488662E-02 -0.14009838642E-01  0.50000500000E+01  0.50000000000E+01 0. -1.
         50    1    1    2    0    0  0.16675527404E-01 -0.50649488662E-02  0.14009838642E-01  0.50000500000E+01  0.50000000000E+01 0.  1.
</event>
<event>
 4    1  0.5060607E-021  0.5000050E+01  0.7818608E-02  0.2136455E+00
        -11   -1    0    0    0    0  0.00000000000E+00  0.00000000000E+00  0.50000499739E+01  0.50000500000E+01  0.51100000000E-03 0. -1.
         11   -1    0    0    0    0 -0.00000000000E+00 -0.00000000000E+00 -0.50000499739E+01  0.50000500000E+01  0.51100000000E-03 0.  1.
         50    1    1    2    0    0  0.33205327692E-02  0.18884107003E-01  0.11505088648E-01  0.50000500000E+01  0.50000000000E+01 0. -1.
         50    1    1    2    0    0 -0.33205327692E-02 -0.18884107003E-01 -0.11505088648E-01  0.50000500000E+01  0.50000000000E+01 0.  1.
</event>
<event>
 4    1  0.5060607E-021  0.5000050E+01  0.7818608E-02  0.2136455E+00
        -11   -1    0    0    0    0  0.00000000000E+00  0.00000000000E+00  0.50000499739E+01  0.50000500000E+01  0.51100000000E-03 0.  1.
         11   -1    0    0    0    0 -0.00000000000E+00 -0.00000000000E+00 -0.50000499739E+01  0.50000500000E+01  0.51100000000E-03 0. -1.
         50    1    1    2    0    0 -0.18658364999E-01  0.12232946138E-01 -0.14909541727E-02  0.50000500000E+01  0.50000000000E+01 0.  0.
         50    1    1    2    0    0  0.18658364999E-01 -0.12232946138E-01  0.14909541727E-02  0.50000500000E+01  0.50000000000E+01 0. -1.
</event>
<event>
 4    1  0.5060607E-021  0.5000050E+01  0.7818608E-02  0.2136455E+00
        -11   -1    0    0    0    0  0.00000000000E+00  0.00000000000E+00  0.50000499739E+01  0.50000500000E+01  0.51100000000E-03 0. -1.
         11   -1    0    0    0    0 -0.00000000000E+00 -0.00000000000E+00 -0.50000499739E+01  0.50000500000E+01  0.51100000000E-03 0.  1.
         50    1    1    2    0    0 -0.21557094689E-01 -0.57035459622E-02 -0.16624476061E-02  0.50000500000E+01  0.50000000000E+01 0. -1.
         50    1    1    2    0    0  0.21557094689E-01  0.57035459622E-02  0.16624476061E-02  0.50000500000E+01  0.50000000000E+01 0.  1.
</event>
<event>
 4    1  0.5060607E-021  0.5000050E+01  0.7818608E-02  0.2136455E+00
        -11   -1    0    0    0    0  0.00000000000E+00  0.00000000000E+00  0.50000499739E+01  0.50000500000E+01  0.51100000000E-03 0.  1.
         11   -1    0    0    0    0 -0.00000000000E+00 -0.00000000000E+00 -0.50000499739E+01  0.50000500000E+01  0.51100000000E-03 0. -1.
         50    1    1    2    0    0 -0.94759383635E-02 -0.13749590267E-01  0.14871377193E-01  0.50000500000E+01  0.50000000000E+01 0.  1.
         50    1    1    2    0    0  0.94759383635E-02  0.13749590267E-01 -0.14871377193E-01  0.50000500000E+01  0.50000000000E+01 0. -1.
</event>
<event>
 4    1  0.5060607E-021  0.5000050E+01  0.7818608E-02  0.2136455E+00
        -11   -1    0    0    0    0  0.00000000000E+00  0.00000000000E+00  0.50000499739E+01  0.50000500000E+01  0.51100000000E-03 0. -1.
         11   -1    0    0    0    0 -0.00000000000E+00 -0.00000000000E+00 -0.50000499739E+01  0.50000500000E+01  0.51100000000E-03 0.  1.
         50    1    1    2    0    0  0.12605782051E-01 -0.16126691259E-01 -0.90014769848E-02  0.50000500000E+01  0.50000000000E+01 0.  1.
         50    1    1    2    0    0 -0.12605782051E-01  0.16126691259E-01  0.90014769848E-02  0.50000500000E+01  0.50000000000E+01 0. -1.
</event>
<event>
 4    1  0.5060607E-021  0.5000050E+01  0.7818608E-02  0.2136455E+00
        -11   -1    0    0    0    0  0.00000000000E+00  0.00000000000E+00  0.50000499739E+01  0.50000500000E+01  0.51100000000E-03 0.  1.
         11   -1    0    0    0    0 -0.00000000000E+00 -0.00000000000E+00 -0.50000499739E+01  0.50000500000E+01  0.51100000000E-03 0. -1.
         50    1    1    2    0    0  0.21170106786E-01  0.29269106590E-02  0.65774062247E-02  0.50000500000E+01  0.50000000000E+01 0.  0.
         50    1    1    2    0    0 -0.21170106786E-01 -0.29269106590E-02 -0.65774062247E-02  0.50000500000E+01  0.50000000000E+01 0. -1.
</event>
<event>
 4    1  0.5060607E-021  0.5000050E+01  0.7818608E-02  0.2136455E+00
        -11   -1    0    0    0    0  0.00000000000E+00  0.00000000000E+00  0.50000499739E+01  0.50000500000E+01  0.51100000000E-03 0.  1.
         11   -1    0    0    0    0 -0.00000000000E+00 -0.00000000000E+00 -0.50000499739E+01  0.50000500000E+01  0.51100000000E-03 0. -1.
         50    1    1    2    0    0 -0.31044711403E-02  0.10254095293E-01  0.19626978592E-01  0.50000500000E+01  0.50000000000E+01 0.  1.
         50    1    1    2    0    0  0.31044711403E-02 -0.10254095293E-01 -0.19626978592E-01  0.50000500000E+01  0.50000000000E+01 0.  0.
</event>
<event>
 4    1  0.5060607E-021  0.5000050E+01  0.7818608E-02  0.2136455E+00
        -11   -1    0    0    0    0  0.00000000000E+00  0.00000000000E+00  0.50000499739E+01  0.50000500000E+01  0.51100000000E-03 0. -1.
         11   -1    0    0    0    0 -0.00000000000E+00 -0.00000000000E+00 -0.50000499739E+01  0.50000500000E+01  0.51100000000E-03 0.  1.
         50    1    1    2    0    0  0.12086930400E-01  0.12939880794E-01  0.13655332239E-01  0.50000500000E+01  0.50000000000E+01 0. -1.
         50    1    1    2    0    0 -0.12086930400E-01 -0.12939880794E-01 -0.13655332239E-01  0.50000500000E+01  0.50000000000E+01 0.  1.
</event>
<event>
 4    1  0.5060607E-021  0.5000050E+01  0.7818608E-02  0.2136455E+00
        -11   -1    0    0    0    0  0.00000000000E+00  0.00000000000E+00  0.50000499739E+01  0.50000500000E+01  0.51100000000E-03 0.  1.
         11   -1    0    0    0    0 -0.00000000000E+00 -0.00000000000E+00 -0.50000499739E+01  0.50000500000E+01  0.51100000000E-03 0. -1.
         50    1    1    2    0    0  0.10436702111E-01 -0.56408976249E-02  0.18954103066E-01  0.50000500000E+01  0.50000000000E+01 0.  0.
         50    1    1    2    0    0 -0.10436702111E-01  0.56408976249E-02 -0.18954103066E-01  0.50000500000E+01  0.50000000000E+01 0. -1.
</event>
<event>
 4    1  0.5060607E-021  0.5000050E+01  0.7818608E-02  0.2136455E+00
        -11   -1    0    0    0    0  0.00000000000E+00  0.00000000000E+00  0.50000499739E+01  0.50000500000E+01  0.51100000000E-03 0.  1.
         11   -1    0    0    0    0 -0.00000000000E+00 -0.00000000000E+00 -0.50000499739E+01  0.50000500000E+01  0.51100000000E-03 0. -1.
         50    1    1    2    0    0  0.83630132629E-02 -0.16031773686E-01 -0.13154647151E-01  0.50000500000E+01  0.50000000000E+01 0.  1.
         50    1    1    2    0    0 -0.83630132629E-02  0.16031773686E-01  0.13154647151E-01  0.50000500000E+01  0.50000000000E+01 0.  0.
</event>
<event>
 4    1  0.5060607E-021  0.5000050E+01  0.7818608E-02  0.2136455E+00
        -11   -1    0    0    0    0  0.00000000000E+00  0.00000000000E+00  0.50000499739E+01  0.50000500000E+01  0.51100000000E-03 0.  1.
         11   -1    0    0    0    0 -0.00000000000E+00 -0.00000000000E+00 -0.50000499739E+01  0.50000500000E+01  0.51100000000E-03 0. -1.
         50    1    1    2    0    0 -0.68719338819E-02 -0.76477134331E-02 -0.19856774762E-01  0.50000500000E+01  0.50000000000E+01 0.  1.
         50    1    1    2    0    0  0.68719338819E-02  0.76477134331E-02  0.19856774762E-01  0.50000500000E+01  0.50000000000E+01 0.  1.
</event>
<event>
 4    1  0.5060607E-021  0.5000050E+01  0.7818608E-02  0.2136455E+00
        -11   -1    0    0    0    0  0.00000000000E+00  0.00000000000E+00  0.50000499739E+01  0.50000500000E+01  0.51100000000E-03 0. -1.
         11   -1    0    0    0    0 -0.00000000000E+00 -0.00000000000E+00 -0.50000499739E+01  0.50000500000E+01  0.51100000000E-03 0.  1.
         50    1    1    2    0    0  0.18457121287E-01  0.12564941757E-01 -0.12080614362E-02  0.50000500000E+01  0.50000000000E+01 0. -1.
         50    1    1    2    0    0 -0.18457121287E-01 -0.12564941757E-01  0.12080614362E-02  0.50000500000E+01  0.50000000000E+01 0.  1.
</event>
<event>
 4    1  0.5060607E-021  0.5000050E+01  0.7818608E-02  0.2136455E+00
        -11   -1    0    0    0    0  0.00000000000E+00  0.00000000000E+00  0.50000499739E+01  0.50000500000E+01  0.51100000000E-03 0. -1.
         11   -1    0    0    0    0 -0.00000000000E+00 -0.00000000000E+00 -0.50000499739E+01  0.50000500000E+01  0.51100000000E-03 0.  1.
         50    1    1    2    0    0 -0.83192033627E-02 -0.17497295795E-01  0.11164138805E-01  0.50000500000E+01  0.50000000000E+01 0. -1.
         50    1    1    2    0    0  0.83192033627E-02  0.17497295795E-01 -0.11164138805E-01  0.50000500000E+01  0.50000000000E+01 0.  1.
</event>
<event>
 4    1  0.5060607E-021  0.5000050E+01  0.7818608E-02  0.2136455E+00
        -11   -1    0    0    0    0  0.00000000000E+00  0.00000000000E+00  0.50000499739E+01  0.50000500000E+01  0.51100000000E-03 0. -1.
         11   -1    0    0    0    0 -0.00000000000E+00 -0.00000000000E+00 -0.50000499739E+01  0.50000500000E+01  0.51100000000E-03 0.  1.
         50    1    1    2    0    0 -0.12368580228E-01  0.12150169458E-01  0.14120697762E-01  0.50000500000E+01  0.50000000000E+01 0. -1.
         50    1    1    2    0    0  0.12368580228E-01 -0.12150169458E-01 -0.14120697762E-01  0.50000500000E+01  0.50000000000E+01 0.  1.
</event>
<event>
 4    1  0.5060607E-021  0.5000050E+01  0.7818608E-02  0.2136455E+00
        -11   -1    0    0    0    0  0.00000000000E+00  0.00000000000E+00  0.50000499739E+01  0.50000500000E+01  0.51100000000E-03 0.  1.
         11   -1    0    0    0    0 -0.00000000000E+00 -0.00000000000E+00 -0.50000499739E+01  0.50000500000E+01  0.51100000000E-03 0. -1.
         50    1    1    2    0    0  0.20282487848E-01 -0.36122729425E-02  0.86933693621E-02  0.50000500000E+01  0.50000000000E+01 0.  0.
         50    1    1    2    0    0 -0.20282487848E-01  0.36122729425E-02 -0.86933693621E-02  0.50000500000E+01  0.50000000000E+01 0.  0.
</event>
<event>
 4    1  0.5060607E-021  0.5000050E+01  0.7818608E-02  0.2136455E+00
        -11   -1    0    0    0    0  0.00000000000E+00  0.00000000000E+00  0.50000499739E+01  0.50000500000E+01  0.51100000000E-03 0. -1.
         11   -1    0    0    0    0 -0.00000000000E+00 -0.00000000000E+00 -0.50000499739E+01  0.50000500000E+01  0.51100000000E-03 0.  1.
         50    1    1    2    0    0  0.36373105231E-02  0.12374855640E-01  0.18265689695E-01  0.50000500000E+01  0.50000000000E+01 0.  0.
         50    1    1    2    0    0 -0.36373105231E-02 -0.12374855640E-01 -0.18265689695E-01  0.50000500000E+01  0.50000000000E+01 0.  0.
</event>
<event>
 4    1  0.5060607E-021  0.5000050E+01  0.7818608E-02  0.2136455E+00
        -11   -1    0    0    0    0  0.00000000000E+00  0.00000000000E+00  0.50000499739E+01  0.50000500000E+01  0.51100000000E-03 0. -1.
         11   -1    0    0    0    0 -0.00000000000E+00 -0.00000000000E+00 -0.50000499739E+01  0.50000500000E+01  0.51100000000E-03 0.  1.
         50    1    1    2    0    0 -0.14598559421E-01  0.88359676596E-02  0.14450267760E-01  0.50000500000E+01  0.50000000000E+01 0. -1.
         50    1    1    2    0    0  0.14598559421E-01 -0.88359676596E-02 -0.14450267760E-01  0.50000500000E+01  0.50000000000E+01 0. -1.
</event>
<event>
 4    1  0.5060607E-021  0.5000050E+01  0.7818608E-02  0.2136455E+00
        -11   -1    0    0    0    0  0.00000000000E+00  0.00000000000E+00  0.50000499739E+01  0.50000500000E+01  0.51100000000E-03 0. -1.
         11   -1    0    0    0    0 -0.00000000000E+00 -0.00000000000E+00 -0.50000499739E+01  0.50000500000E+01  0.51100000000E-03 0.  1.
         50    1    1    2    0    0 -0.12045698997E-01 -0.11662821806E-01 -0.14794668742E-01  0.50000500000E+01  0.50000000000E+01 0.  1.
         50    1    1    2    0    0  0.12045698997E-01  0.11662821806E-01  0.14794668742E-01  0.50000500000E+01  0.50000000000E+01 0. -1.
</event>
<event>
 4    1  0.5060607E-021  0.5000050E+01  0.7818608E-02  0.2136455E+00
        -11   -1    0    0    0    0  0.00000000000E+00  0.00000000000E+00  0.50000499739E+01  0.50000500000E+01  0.51100000000E-03 0. -1.
         11   -1    0    0    0    0 -0.00000000000E+00 -0.00000000000E+00 -0.50000499739E+01  0.50000500000E+01  0.51100000000E-03 0.  1.
         50    1    1    2    0    0 -0.10784275834E-02 -0.93441873049E-02  0.20286095178E-01  0.50000500000E+01  0.50000000000E+01 0.  0.
         50    1    1    2    0    0  0.10784275834E-02  0.93441873049E-02 -0.20286095178E-01  0.50000500000E+01  0.50000000000E+01 0.  1.
</event>
<event>
 4    1  0.5060607E-021  0.5000050E+01  0.7818608E-02  0.2136455E+00
        -11   -1    0    0    0    0  0.00000000000E+00  0.00000000000E+00  0.50000499739E+01  0.50000500000E+01  0.51100000000E-03 0. -1.
         11   -1    0    0    0    0 -0.00000000000E+00 -0.00000000000E+00 -0.50000499739E+01  0.50000500000E+01  0.51100000000E-03 0.  1.
         50    1    1    2    0    0 -0.10170266869E-01  0.10400129043E-01  0.16982505343E-01  0.50000500000E+01  0.50000000000E+01 0. -1.
         50    1    1    2    0    0  0.10170266869E-01 -0.10400129043E-01 -0.16982505343E-01  0.50000500000E+01  0.50000000000E+01 0.  1.
</event>
<event>
 4    1  0.5060607E-021  0.5000050E+01  0.7818608E-02  0.2136455E+00
        -11   -1    0    0    0    0  0.00000000000E+00  0.00000000000E+00  0.50000499739E+01  0.50000500000E+01  0.51100000000E-03 0. -1.
         11   -1    0    0    0    0 -0.00000000000E+00 -0.00000000000E+00 -0.50000499739E+01  0.50000500000E+01  0.51100000000E-03 0.  1.
         50    1    1    2    0    0 -0.10292885376E-02 -0.10588603276E-01  0.19667855648E-01  0.50000500000E+01  0.50000000000E+01 0.  0.
         50    1    1    2    0    0  0.10292885376E-02  0.10588603276E-01 -0.19667855648E-01  0.50000500000E+01  0.50000000000E+01 0.  1.
</event>
<event>
 4    1  0.5060607E-021  0.5000050E+01  0.7818608E-02  0.2136455E+00
        -11   -1    0    0    0    0  0.00000000000E+00  0.00000000000E+00  0.50000499739E+01  0.50000500000E+01  0.51100000000E-03 0. -1.
         11   -1    0    0    0    0 -0.00000000000E+00 -0.00000000000E+00 -0.50000499739E+01  0.50000500000E+01  0.51100000000E-03 0.  1.
         50    1    1    2    0    0  0.90422403638E-02 -0.14363440505E-01  0.14557883296E-01  0.50000500000E+01  0.50000000000E+01 0. -1.
         50    1    1    2    0    0 -0.90422403638E-02  0.14363440505E-01 -0.14557883296E-01  0.50000500000E+01  0.50000000000E+01 0.  1.
</event>
<event>
 4    1  0.5060607E-021  0.5000050E+01  0.7818608E-02  0.2136455E+00
        -11   -1    0    0    0    0  0.00000000000E+00  0.00000000000E+00  0.50000499739E+01  0.50000500000E+01  0.51100000000E-03 0. -1.
         11   -1    0    0    0    0 -0.00000000000E+00 -0.00000000000E+00 -0.50000499739E+01  0.50000500000E+01  0.51100000000E-03 0.  1.
         50    1    1    2    0    0 -0.66027255165E-02  0.16319920898E-01  0.13786467917E-01  0.50000500000E+01  0.50000000000E+01 0. -1.
         50    1    1    2    0    0  0.66027255165E-02 -0.16319920898E-01 -0.13786467917E-01  0.50000500000E+01  0.50000000000E+01 0.  1.
</event>
<event>
 4    1  0.5060607E-021  0.5000050E+01  0.7818608E-02  0.2136455E+00
        -11   -1    0    0    0    0  0.00000000000E+00  0.00000000000E+00  0.50000499739E+01  0.50000500000E+01  0.51100000000E-03 0. -1.
         11   -1    0    0    0    0 -0.00000000000E+00 -0.00000000000E+00 -0.50000499739E+01  0.50000500000E+01  0.51100000000E-03 0.  1.
         50    1    1    2    0    0  0.14031580869E-01  0.17366628104E-01  0.12318549574E-02  0.50000500000E+01  0.50000000000E+01 0.  0.
         50    1    1    2    0    0 -0.14031580869E-01 -0.17366628104E-01 -0.12318549574E-02  0.50000500000E+01  0.50000000000E+01 0.  1.
</event>
<event>
 4    1  0.5060607E-021  0.5000050E+01  0.7818608E-02  0.2136455E+00
        -11   -1    0    0    0    0  0.00000000000E+00  0.00000000000E+00  0.50000499739E+01  0.50000500000E+01  0.51100000000E-03 0.  1.
         11   -1    0    0    0    0 -0.00000000000E+00 -0.00000000000E+00 -0.50000499739E+01  0.50000500000E+01  0.51100000000E-03 0. -1.
         50    1    1    2    0    0  0.22631687963E-02  0.61583549971E-02 -0.21376511192E-01  0.50000500000E+01  0.50000000000E+01 0. -1.
         50    1    1    2    0    0 -0.22631687963E-02 -0.61583549971E-02  0.21376511192E-01  0.50000500000E+01  0.50000000000E+01 0. -1.
</event>
<event>
 4    1  0.5060607E-021  0.5000050E+01  0.7818608E-02  0.2136455E+00
        -11   -1    0    0    0    0  0.00000000000E+00  0.00000000000E+00  0.50000499739E+01  0.50000500000E+01  0.51100000000E-03 0.  1.
         11   -1    0    0    0    0 -0.00000000000E+00 -0.00000000000E+00 -0.50000499739E+01  0.50000500000E+01  0.51100000000E-03 0. -1.
         50    1    1    2    0    0  0.14409523438E-01 -0.14428029462E-01  0.91760612536E-02  0.50000500000E+01  0.50000000000E+01 0.  1.
         50    1    1    2    0    0 -0.14409523438E-01  0.14428029462E-01 -0.91760612536E-02  0.50000500000E+01  0.50000000000E+01 0. -1.
</event>
<event>
 4    1  0.5060607E-021  0.5000050E+01  0.7818608E-02  0.2136455E+00
        -11   -1    0    0    0    0  0.00000000000E+00  0.00000000000E+00  0.50000499739E+01  0.50000500000E+01  0.51100000000E-03 0.  1.
         11   -1    0    0    0    0 -0.00000000000E+00 -0.00000000000E+00 -0.50000499739E+01  0.50000500000E+01  0.51100000000E-03 0. -1.
         50    1    1    2    0    0 -0.15285021040E-01 -0.12583752904E-01  0.10393257172E-01  0.50000500000E+01  0.50000000000E+01 0. -1.
         50    1    1    2    0    0  0.15285021040E-01  0.12583752904E-01 -0.10393257172E-01  0.50000500000E+01  0.50000000000E+01 0.  0.
</event>
<event>
 4    1  0.5060607E-021  0.5000050E+01  0.7818608E-02  0.2136455E+00
        -11   -1    0    0    0    0  0.00000000000E+00  0.00000000000E+00  0.50000499739E+01  0.50000500000E+01  0.51100000000E-03 0.  1.
         11   -1    0    0    0    0 -0.00000000000E+00 -0.00000000000E+00 -0.50000499739E+01  0.50000500000E+01  0.51100000000E-03 0. -1.
         50    1    1    2    0    0 -0.99976167573E-02 -0.15738572600E-02 -0.19939236006E-01  0.50000500000E+01  0.50000000000E+01 0. -1.
         50    1    1    2    0    0  0.99976167573E-02  0.15738572600E-02  0.19939236006E-01  0.50000500000E+01  0.50000000000E+01 0.  1.
</event>
<event>
 4    1  0.5060607E-021  0.5000050E+01  0.7818608E-02  0.2136455E+00
        -11   -1    0    0    0    0  0.00000000000E+00  0.00000000000E+00  0.50000499739E+01  0.50000500000E+01  0.51100000000E-03 0.  1.
         11   -1    0    0    0    0 -0.00000000000E+00 -0.00000000000E+00 -0.50000499739E+01  0.50000500000E+01  0.51100000000E-03 0. -1.
         50    1    1    2    0    0 -0.98774801222E-02 -0.15399419915E-01  0.12856739584E-01  0.50000500000E+01  0.50000000000E+01 0.  0.
         50    1    1    2    0    0  0.98774801222E-02  0.15399419915E-01 -0.12856739584E-01  0.50000500000E+01  0.50000000000E+01 0.  0.
</event>
<event>
 4    1  0.5060607E-021  0.5000050E+01  0.7818608E-02  0.2136455E+00
        -11   -1    0    0    0    0  0.00000000000E+00  0.00000000000E+00  0.50000499739E+01  0.50000500000E+01  0.51100000000E-03 0. -1.
         11   -1    0    0    0    0 -0.00000000000E+00 -0.00000000000E+00 -0.50000499739E+01  0.50000500000E+01  0.51100000000E-03 0.  1.
         50    1    1    2    0    0 -0.18230974575E-01 -0.11514185254E-01  0.59209462051E-02  0.50000500000E+01  0.50000000000E+01 0.  1.
         50    1    1    2    0    0  0.18230974575E-01  0.11514185254E-01 -0.59209462051E-02  0.50000500000E+01  0.50000000000E+01 0.  0.
</event>
<event>
 4    1  0.5060607E-021  0.5000050E+01  0.7818608E-02  0.2136455E+00
        -11   -1    0    0    0    0  0.00000000000E+00  0.00000000000E+00  0.50000499739E+01  0.50000500000E+01  0.51100000000E-03 0. -1.
         11   -1    0    0    0    0 -0.00000000000E+00 -0.00000000000E+00 -0.50000499739E+01  0.50000500000E+01  0.51100000000E-03 0.  1.
         50    1    1    2    0    0  0.15937618661E-01 -0.73643766925E-02 -0.13847771205E-01  0.50000500000E+01  0.50000000000E+01 0.  1.
         50    1    1    2    0    0 -0.15937618661E-01  0.73643766925E-02  0.13847771205E-01  0.50000500000E+01  0.50000000000E+01 0. -1.
</event>
<event>
 4    1  0.5060607E-021  0.5000050E+01  0.7818608E-02  0.2136455E+00
        -11   -1    0    0    0    0  0.00000000000E+00  0.00000000000E+00  0.50000499739E+01  0.50000500000E+01  0.51100000000E-03 0.  1.
         11   -1    0    0    0    0 -0.00000000000E+00 -0.00000000000E+00 -0.50000499739E+01  0.50000500000E+01  0.51100000000E-03 0. -1.
         50    1    1    2    0    0 -0.16889643499E-01  0.14097809244E-01 -0.39992770591E-02  0.50000500000E+01  0.50000000000E+01 0. -1.
         50    1    1    2    0    0  0.16889643499E-01 -0.14097809244E-01  0.39992770591E-02  0.50000500000E+01  0.50000000000E+01 0.  1.
</event>
<event>
 4    1  0.5060607E-021  0.5000050E+01  0.7818608E-02  0.2136455E+00
        -11   -1    0    0    0    0  0.00000000000E+00  0.00000000000E+00  0.50000499739E+01  0.50000500000E+01  0.51100000000E-03 0. -1.
         11   -1    0    0    0    0 -0.00000000000E+00 -0.00000000000E+00 -0.50000499739E+01  0.50000500000E+01  0.51100000000E-03 0.  1.
         50    1    1    2    0    0  0.18851701971E-01 -0.10604407786E-01  0.56711875566E-02  0.50000500000E+01  0.50000000000E+01 0. -1.
         50    1    1    2    0    0 -0.18851701971E-01  0.10604407786E-01 -0.56711875566E-02  0.50000500000E+01  0.50000000000E+01 0.  1.
</event>
<event>
 4    1  0.5060607E-021  0.5000050E+01  0.7818608E-02  0.2136455E+00
        -11   -1    0    0    0    0  0.00000000000E+00  0.00000000000E+00  0.50000499739E+01  0.50000500000E+01  0.51100000000E-03 0.  1.
         11   -1    0    0    0    0 -0.00000000000E+00 -0.00000000000E+00 -0.50000499739E+01  0.50000500000E+01  0.51100000000E-03 0. -1.
         50    1    1    2    0    0  0.81373933895E-02  0.23015990714E-02  0.20699950979E-01  0.50000500000E+01  0.50000000000E+01 0.  0.
         50    1    1    2    0    0 -0.81373933895E-02 -0.23015990714E-02 -0.20699950979E-01  0.50000500000E+01  0.50000000000E+01 0.  0.
</event>
<event>
 4    1  0.5060607E-021  0.5000050E+01  0.7818608E-02  0.2136455E+00
        -11   -1    0    0    0    0  0.00000000000E+00  0.00000000000E+00  0.50000499739E+01  0.50000500000E+01  0.51100000000E-03 0. -1.
         11   -1    0    0    0    0 -0.00000000000E+00 -0.00000000000E+00 -0.50000499739E+01  0.50000500000E+01  0.51100000000E-03 0.  1.
         50    1    1    2    0    0 -0.95803489141E-02 -0.13729699179E-01 -0.14822778927E-01  0.50000500000E+01  0.50000000000E+01 0.  1.
         50    1    1    2    0    0  0.95803489141E-02  0.13729699179E-01  0.14822778927E-01  0.50000500000E+01  0.50000000000E+01 0. -1.
</event>
<event>
 4    1  0.5060607E-021  0.5000050E+01  0.7818608E-02  0.2136455E+00
        -11   -1    0    0    0    0  0.00000000000E+00  0.00000000000E+00  0.50000499739E+01  0.50000500000E+01  0.51100000000E-03 0. -1.
         11   -1    0    0    0    0 -0.00000000000E+00 -0.00000000000E+00 -0.50000499739E+01  0.50000500000E+01  0.51100000000E-03 0.  1.
         50    1    1    2    0    0 -0.18115954371E-01 -0.10857125887E-02  0.13062768673E-01  0.50000500000E+01  0.50000000000E+01 0.  0.
         50    1    1    2    0    0  0.18115954371E-01  0.10857125887E-02 -0.13062768673E-01  0.50000500000E+01  0.50000000000E+01 0.  0.
</event>
<event>
 4    1  0.5060607E-021  0.5000050E+01  0.7818608E-02  0.2136455E+00
        -11   -1    0    0    0    0  0.00000000000E+00  0.00000000000E+00  0.50000499739E+01  0.50000500000E+01  0.51100000000E-03 0. -1.
         11   -1    0    0    0    0 -0.00000000000E+00 -0.00000000000E+00 -0.50000499739E+01  0.50000500000E+01  0.51100000000E-03 0.  1.
         50    1    1    2    0    0 -0.21314003552E-01  0.65702913482E-02  0.15959399068E-02  0.50000500000E+01  0.50000000000E+01 0.  0.
         50    1    1    2    0    0  0.21314003552E-01 -0.65702913482E-02 -0.15959399068E-02  0.50000500000E+01  0.50000000000E+01 0.  1.
</event>
<event>
 4    1  0.5060607E-021  0.5000050E+01  0.7818608E-02  0.2136455E+00
        -11   -1    0    0    0    0  0.00000000000E+00  0.00000000000E+00  0.50000499739E+01  0.50000500000E+01  0.51100000000E-03 0. -1.
         11   -1    0    0    0    0 -0.00000000000E+00 -0.00000000000E+00 -0.50000499739E+01  0.50000500000E+01  0.51100000000E-03 0.  1.
         50    1    1    2    0    0 -0.50930545723E-02 -0.19965639277E-01  0.86854213121E-02  0.50000500000E+01  0.50000000000E+01 0.  1.
         50    1    1    2    0    0  0.50930545723E-02  0.19965639277E-01 -0.86854213121E-02  0.50000500000E+01  0.50000000000E+01 0.  0.
</event>
<event>
 4    1  0.5060607E-021  0.5000050E+01  0.7818608E-02  0.2136455E+00
        -11   -1    0    0    0    0  0.00000000000E+00  0.00000000000E+00  0.50000499739E+01  0.50000500000E+01  0.51100000000E-03 0.  1.
         11   -1    0    0    0    0 -0.00000000000E+00 -0.00000000000E+00 -0.50000499739E+01  0.50000500000E+01  0.51100000000E-03 0. -1.
         50    1    1    2    0    0 -0.26279545791E-02  0.16045239670E-01  0.15350786255E-01  0.50000500000E+01  0.50000000000E+01 0.  1.
         50    1    1    2    0    0  0.26279545791E-02 -0.16045239670E-01 -0.15350786255E-01  0.50000500000E+01  0.50000000000E+01 0. -1.
</event>
<event>
 4    1  0.5060607E-021  0.5000050E+01  0.7818608E-02  0.2136455E+00
        -11   -1    0    0    0    0  0.00000000000E+00  0.00000000000E+00  0.50000499739E+01  0.50000500000E+01  0.51100000000E-03 0.  1.
         11   -1    0    0    0    0 -0.00000000000E+00 -0.00000000000E+00 -0.50000499739E+01  0.50000500000E+01  0.51100000000E-03 0. -1.
         50    1    1    2    0    0  0.17484159513E-02 -0.11482736782E-01 -0.19107388562E-01  0.50000500000E+01  0.50000000000E+01 0. -1.
         50    1    1    2    0    0 -0.17484159513E-02  0.11482736782E-01  0.19107388562E-01  0.50000500000E+01  0.50000000000E+01 0.  1.
</event>
<event>
 4    1  0.5060607E-021  0.5000050E+01  0.7818608E-02  0.2136455E+00
        -11   -1    0    0    0    0  0.00000000000E+00  0.00000000000E+00  0.50000499739E+01  0.50000500000E+01  0.51100000000E-03 0. -1.
         11   -1    0    0    0    0 -0.00000000000E+00 -0.00000000000E+00 -0.50000499739E+01  0.50000500000E+01  0.51100000000E-03 0.  1.
         50    1    1    2    0    0 -0.95729717310E-02 -0.19385113529E-01  0.57077215868E-02  0.50000500000E+01  0.50000000000E+01 0.  0.
         50    1    1    2    0    0  0.95729717310E-02  0.19385113529E-01 -0.57077215868E-02  0.50000500000E+01  0.50000000000E+01 0.  1.
</event>
<event>
 4    1  0.5060607E-021  0.5000050E+01  0.7818608E-02  0.2136455E+00
        -11   -1    0    0    0    0  0.00000000000E+00  0.00000000000E+00  0.50000499739E+01  0.50000500000E+01  0.51100000000E-03 0.  1.
         11   -1    0    0    0    0 -0.00000000000E+00 -0.00000000000E+00 -0.50000499739E+01  0.50000500000E+01  0.51100000000E-03 0. -1.
         50    1    1    2    0    0  0.48164588290E-02 -0.21334296150E-01 -0.46531744159E-02  0.50000500000E+01  0.50000000000E+01 0.  1.
         50    1    1    2    0    0 -0.48164588290E-02  0.21334296150E-01  0.46531744159E-02  0.50000500000E+01  0.50000000000E+01 0.  0.
</event>
<event>
 4    1  0.5060607E-021  0.5000050E+01  0.7818608E-02  0.2136455E+00
        -11   -1    0    0    0    0  0.00000000000E+00  0.00000000000E+00  0.50000499739E+01  0.50000500000E+01  0.51100000000E-03 0. -1.
         11   -1    0    0    0    0 -0.00000000000E+00 -0.00000000000E+00 -0.50000499739E+01  0.50000500000E+01  0.51100000000E-03 0.  1.
         50    1    1    2    0    0 -0.10644896431E-03 -0.14175740220E-01  0.17292760272E-01  0.50000500000E+01  0.50000000000E+01 0. -1.
         50    1    1    2    0    0  0.10644896431E-03  0.14175740220E-01 -0.17292760272E-01  0.50000500000E+01  0.50000000000E+01 0.  0.
</event>
<event>
 4    1  0.5060607E-021  0.5000050E+01  0.7818608E-02  0.2136455E+00
        -11   -1    0    0    0    0  0.00000000000E+00  0.00000000000E+00  0.50000499739E+01  0.50000500000E+01  0.51100000000E-03 0.  1.
         11   -1    0    0    0    0 -0.00000000000E+00 -0.00000000000E+00 -0.50000499739E+01  0.50000500000E+01  0.51100000000E-03 0. -1.
         50    1    1    2    0    0  0.19217983817E-01 -0.10809415186E-01  0.37186208926E-02  0.50000500000E+01  0.50000000000E+01 0. -1.
         50    1    1    2    0    0 -0.19217983817E-01  0.10809415186E-01 -0.37186208926E-02  0.50000500000E+01  0.50000000000E+01 0.  0.
</event>
<event>
 4    1  0.5060607E-021  0.5000050E+01  0.7818608E-02  0.2136455E+00
        -11   -1    0    0    0    0  0.00000000000E+00  0.00000000000E+00  0.50000499739E+01  0.50000500000E+01  0.51100000000E-03 0.  1.
         11   -1    0    0    0    0 -0.00000000000E+00 -0.00000000000E+00 -0.50000499739E+01  0.50000500000E+01  0.51100000000E-03 0. -1.
         50    1    1    2    0    0 -0.64627232560E-02  0.14303849089E-01 -0.15925941396E-01  0.50000500000E+01  0.50000000000E+01 0. -1.
         50    1    1    2    0    0  0.64627232560E-02 -0.14303849089E-01  0.15925941396E-01  0.50000500000E+01  0.50000000000E+01 0.  1.
</event>
<event>
 4    1  0.5060607E-021  0.5000050E+01  0.7818608E-02  0.2136455E+00
        -11   -1    0    0    0    0  0.00000000000E+00  0.00000000000E+00  0.50000499739E+01  0.50000500000E+01  0.51100000000E-03 0.  1.
         11   -1    0    0    0    0 -0.00000000000E+00 -0.00000000000E+00 -0.50000499739E+01  0.50000500000E+01  0.51100000000E-03 0. -1.
         50    1    1    2    0    0 -0.12176278785E-02  0.20030218547E-01  0.98645946351E-02  0.50000500000E+01  0.50000000000E+01 0.  0.
         50    1    1    2    0    0  0.12176278785E-02 -0.20030218547E-01 -0.98645946351E-02  0.50000500000E+01  0.50000000000E+01 0.  1.
</event>
<event>
 4    1  0.5060607E-021  0.5000050E+01  0.7818608E-02  0.2136455E+00
        -11   -1    0    0    0    0  0.00000000000E+00  0.00000000000E+00  0.50000499739E+01  0.50000500000E+01  0.51100000000E-03 0.  1.
         11   -1    0    0    0    0 -0.00000000000E+00 -0.00000000000E+00 -0.50000499739E+01  0.50000500000E+01  0.51100000000E-03 0. -1.
         50    1    1    2    0    0  0.58555751896E-02 -0.11588741354E-01 -0.18204829387E-01  0.50000500000E+01  0.50000000000E+01 0. -1.
         50    1    1    2    0    0 -0.58555751896E-02  0.11588741354E-01  0.18204829387E-01  0.50000500000E+01  0.50000000000E+01 0.  0.
</event>
<event>
 4    1  0.5060607E-021  0.5000050E+01  0.7818608E-02  0.2136455E+00
        -11   -1    0    0    0    0  0.00000000000E+00  0.00000000000E+00  0.50000499739E+01  0.50000500000E+01  0.51100000000E-03 0.  1.
         11   -1    0    0    0    0 -0.00000000000E+00 -0.00000000000E+00 -0.50000499739E+01  0.50000500000E+01  0.51100000000E-03 0. -1.
         50    1    1    2    0    0 -0.13676986746E-01  0.86458395740E-02  0.15433469850E-01  0.50000500000E+01  0.50000000000E+01 0.  0.
         50    1    1    2    0    0  0.13676986746E-01 -0.86458395740E-02 -0.15433469850E-01  0.50000500000E+01  0.50000000000E+01 0.  0.
</event>
<event>
 4    1  0.5060607E-021  0.5000050E+01  0.7818608E-02  0.2136455E+00
        -11   -1    0    0    0    0  0.00000000000E+00  0.00000000000E+00  0.50000499739E+01  0.50000500000E+01  0.51100000000E-03 0.  1.
         11   -1    0    0    0    0 -0.00000000000E+00 -0.00000000000E+00 -0.50000499739E+01  0.50000500000E+01  0.51100000000E-03 0. -1.
         50    1    1    2    0    0 -0.10631233438E-01 -0.10339333327E-01 -0.16735517976E-01  0.50000500000E+01  0.50000000000E+01 0.  0.
         50    1    1    2    0    0  0.10631233438E-01  0.10339333327E-01  0.16735517976E-01  0.50000500000E+01  0.50000000000E+01 0.  1.
</event>
<event>
 4    1  0.5060607E-021  0.5000050E+01  0.7818608E-02  0.2136455E+00
        -11   -1    0    0    0    0  0.00000000000E+00  0.00000000000E+00  0.50000499739E+01  0.50000500000E+01  0.51100000000E-03 0. -1.
         11   -1    0    0    0    0 -0.00000000000E+00 -0.00000000000E+00 -0.50000499739E+01  0.50000500000E+01  0.51100000000E-03 0.  1.
         50    1    1    2    0    0  0.13693901246E-01  0.48666873502E-02 -0.16993967250E-01  0.50000500000E+01  0.50000000000E+01 0.  1.
         50    1    1    2    0    0 -0.13693901246E-01 -0.48666873502E-02  0.16993967250E-01  0.50000500000E+01  0.50000000000E+01 0. -1.
</event>
<event>
 4    1  0.5060607E-021  0.5000050E+01  0.7818608E-02  0.2136455E+00
        -11   -1    0    0    0    0  0.00000000000E+00  0.00000000000E+00  0.50000499739E+01  0.50000500000E+01  0.51100000000E-03 0.  1.
         11   -1    0    0    0    0 -0.00000000000E+00 -0.00000000000E+00 -0.50000499739E+01  0.50000500000E+01  0.51100000000E-03 0. -1.
         50    1    1    2    0    0  0.11634335313E-01 -0.18847954504E-01 -0.30658363998E-02  0.50000500000E+01  0.50000000000E+01 0. -1.
         50    1    1    2    0    0 -0.11634335313E-01  0.18847954504E-01  0.30658363998E-02  0.50000500000E+01  0.50000000000E+01 0.  1.
</event>
<event>
 4    1  0.5060607E-021  0.5000050E+01  0.7818608E-02  0.2136455E+00
        -11   -1    0    0    0    0  0.00000000000E+00  0.00000000000E+00  0.50000499739E+01  0.50000500000E+01  0.51100000000E-03 0.  1.
         11   -1    0    0    0    0 -0.00000000000E+00 -0.00000000000E+00 -0.50000499739E+01  0.50000500000E+01  0.51100000000E-03 0. -1.
         50    1    1    2    0    0  0.11975841220E-01  0.16629943141E-01 -0.89457653771E-02  0.50000500000E+01  0.50000000000E+01 0. -1.
         50    1    1    2    0    0 -0.11975841220E-01 -0.16629943141E-01  0.89457653771E-02  0.50000500000E+01  0.50000000000E+01 0.  1.
</event>
<event>
 4    1  0.5060607E-021  0.5000050E+01  0.7818608E-02  0.2136455E+00
        -11   -1    0    0    0    0  0.00000000000E+00  0.00000000000E+00  0.50000499739E+01  0.50000500000E+01  0.51100000000E-03 0. -1.
         11   -1    0    0    0    0 -0.00000000000E+00 -0.00000000000E+00 -0.50000499739E+01  0.50000500000E+01  0.51100000000E-03 0.  1.
         50    1    1    2    0    0  0.17509677893E-01 -0.64200594575E-02 -0.12336795233E-01  0.50000500000E+01  0.50000000000E+01 0.  0.
         50    1    1    2    0    0 -0.17509677893E-01  0.64200594575E-02  0.12336795233E-01  0.50000500000E+01  0.50000000000E+01 0.  0.
</event>
<event>
 4    1  0.5060607E-021  0.5000050E+01  0.7818608E-02  0.2136455E+00
        -11   -1    0    0    0    0  0.00000000000E+00  0.00000000000E+00  0.50000499739E+01  0.50000500000E+01  0.51100000000E-03 0. -1.
         11   -1    0    0    0    0 -0.00000000000E+00 -0.00000000000E+00 -0.50000499739E+01  0.50000500000E+01  0.51100000000E-03 0.  1.
         50    1    1    2    0    0  0.44450509427E-02  0.11565253263E-01 -0.18614213362E-01  0.50000500000E+01  0.50000000000E+01 0.  0.
         50    1    1    2    0    0 -0.44450509427E-02 -0.11565253263E-01  0.18614213362E-01  0.50000500000E+01  0.50000000000E+01 0.  0.
</event>
<event>
 4    1  0.5060607E-021  0.5000050E+01  0.7818608E-02  0.2136455E+00
        -11   -1    0    0    0    0  0.00000000000E+00  0.00000000000E+00  0.50000499739E+01  0.50000500000E+01  0.51100000000E-03 0. -1.
         11   -1    0    0    0    0 -0.00000000000E+00 -0.00000000000E+00 -0.50000499739E+01  0.50000500000E+01  0.51100000000E-03 0.  1.
         50    1    1    2    0    0  0.80112304574E-02  0.11884355713E-01 -0.17163472139E-01  0.50000500000E+01  0.50000000000E+01 0. -1.
         50    1    1    2    0    0 -0.80112304574E-02 -0.11884355713E-01  0.17163472139E-01  0.50000500000E+01  0.50000000000E+01 0. -1.
</event>
<event>
 4    1  0.5060607E-021  0.5000050E+01  0.7818608E-02  0.2136455E+00
        -11   -1    0    0    0    0  0.00000000000E+00  0.00000000000E+00  0.50000499739E+01  0.50000500000E+01  0.51100000000E-03 0. -1.
         11   -1    0    0    0    0 -0.00000000000E+00 -0.00000000000E+00 -0.50000499739E+01  0.50000500000E+01  0.51100000000E-03 0.  1.
         50    1    1    2    0    0  0.10687582693E-01  0.31727875299E-02  0.19383278760E-01  0.50000500000E+01  0.50000000000E+01 0.  0.
         50    1    1    2    0    0 -0.10687582693E-01 -0.31727875299E-02 -0.19383278760E-01  0.50000500000E+01  0.50000000000E+01 0.  0.
</event>
<event>
 4    1  0.5060607E-021  0.5000050E+01  0.7818608E-02  0.2136455E+00
        -11   -1    0    0    0    0  0.00000000000E+00  0.00000000000E+00  0.50000499739E+01  0.50000500000E+01  0.51100000000E-03 0. -1.
         11   -1    0    0    0    0 -0.00000000000E+00 -0.00000000000E+00 -0.50000499739E+01  0.50000500000E+01  0.51100000000E-03 0.  1.
         50    1    1    2    0    0 -0.83127216725E-02  0.15314336873E-02  0.20701590984E-01  0.50000500000E+01  0.50000000000E+01 0. -1.
         50    1    1    2    0    0  0.83127216725E-02 -0.15314336873E-02 -0.20701590984E-01  0.50000500000E+01  0.50000000000E+01 0.  0.
</event>
<event>
 4    1  0.5060607E-021  0.5000050E+01  0.7818608E-02  0.2136455E+00
        -11   -1    0    0    0    0  0.00000000000E+00  0.00000000000E+00  0.50000499739E+01  0.50000500000E+01  0.51100000000E-03 0.  1.
         11   -1    0    0    0    0 -0.00000000000E+00 -0.00000000000E+00 -0.50000499739E+01  0.50000500000E+01  0.51100000000E-03 0. -1.
         50    1    1    2    0    0 -0.19840041643E-01 -0.44306791737E-02  0.93136635998E-02  0.50000500000E+01  0.50000000000E+01 0.  1.
         50    1    1    2    0    0  0.19840041643E-01  0.44306791737E-02 -0.93136635998E-02  0.50000500000E+01  0.50000000000E+01 0. -1.
</event>
<event>
 4    1  0.5060607E-021  0.5000050E+01  0.7818608E-02  0.2136455E+00
        -11   -1    0    0    0    0  0.00000000000E+00  0.00000000000E+00  0.50000499739E+01  0.50000500000E+01  0.51100000000E-03 0. -1.
         11   -1    0    0    0    0 -0.00000000000E+00 -0.00000000000E+00 -0.50000499739E+01  0.50000500000E+01  0.51100000000E-03 0.  1.
         50    1    1    2    0    0  0.17197012940E-01  0.27914813686E-03  0.14289412943E-01  0.50000500000E+01  0.50000000000E+01 0.  0.
         50    1    1    2    0    0 -0.17197012940E-01 -0.27914813686E-03 -0.14289412943E-01  0.50000500000E+01  0.50000000000E+01 0.  0.
</event>
<event>
 4    1  0.5060607E-021  0.5000050E+01  0.7818608E-02  0.2136455E+00
        -11   -1    0    0    0    0  0.00000000000E+00  0.00000000000E+00  0.50000499739E+01  0.50000500000E+01  0.51100000000E-03 0.  1.
         11   -1    0    0    0    0 -0.00000000000E+00 -0.00000000000E+00 -0.50000499739E+01  0.50000500000E+01  0.51100000000E-03 0. -1.
         50    1    1    2    0    0 -0.11514624435E-01 -0.16140988801E-01  0.10338491410E-01  0.50000500000E+01  0.50000000000E+01 0.  1.
         50    1    1    2    0    0  0.11514624435E-01  0.16140988801E-01 -0.10338491410E-01  0.50000500000E+01  0.50000000000E+01 0. -1.
</event>
<event>
 4    1  0.5060607E-021  0.5000050E+01  0.7818608E-02  0.2136455E+00
        -11   -1    0    0    0    0  0.00000000000E+00  0.00000000000E+00  0.50000499739E+01  0.50000500000E+01  0.51100000000E-03 0. -1.
         11   -1    0    0    0    0 -0.00000000000E+00 -0.00000000000E+00 -0.50000499739E+01  0.50000500000E+01  0.51100000000E-03 0.  1.
         50    1    1    2    0    0  0.22102890912E-02 -0.93970548143E-02 -0.20169593029E-01  0.50000500000E+01  0.50000000000E+01 0.  1.
         50    1    1    2    0    0 -0.22102890912E-02  0.93970548143E-02  0.20169593029E-01  0.50000500000E+01  0.50000000000E+01 0.  0.
</event>
<event>
 4    1  0.5060607E-021  0.5000050E+01  0.7818608E-02  0.2136455E+00
        -11   -1    0    0    0    0  0.00000000000E+00  0.00000000000E+00  0.50000499739E+01  0.50000500000E+01  0.51100000000E-03 0.  1.
         11   -1    0    0    0    0 -0.00000000000E+00 -0.00000000000E+00 -0.50000499739E+01  0.50000500000E+01  0.51100000000E-03 0. -1.
         50    1    1    2    0    0 -0.16114555813E-01 -0.66237934373E-02 -0.14016024809E-01  0.50000500000E+01  0.50000000000E+01 0.  0.
         50    1    1    2    0    0  0.16114555813E-01  0.66237934373E-02  0.14016024809E-01  0.50000500000E+01  0.50000000000E+01 0. -1.
</event>
<event>
 4    1  0.5060607E-021  0.5000050E+01  0.7818608E-02  0.2136455E+00
        -11   -1    0    0    0    0  0.00000000000E+00  0.00000000000E+00  0.50000499739E+01  0.50000500000E+01  0.51100000000E-03 0. -1.
         11   -1    0    0    0    0 -0.00000000000E+00 -0.00000000000E+00 -0.50000499739E+01  0.50000500000E+01  0.51100000000E-03 0.  1.
         50    1    1    2    0    0 -0.21659652869E-01  0.82480850895E-03 -0.54937808931E-02  0.50000500000E+01  0.50000000000E+01 0. -1.
         50    1    1    2    0    0  0.21659652869E-01 -0.82480850895E-03  0.54937808931E-02  0.50000500000E+01  0.50000000000E+01 0.  1.
</event>
<event>
 4    1  0.5060607E-021  0.5000050E+01  0.7818608E-02  0.2136455E+00
        -11   -1    0    0    0    0  0.00000000000E+00  0.00000000000E+00  0.50000499739E+01  0.50000500000E+01  0.51100000000E-03 0. -1.
         11   -1    0    0    0    0 -0.00000000000E+00 -0.00000000000E+00 -0.50000499739E+01  0.50000500000E+01  0.51100000000E-03 0.  1.
         50    1    1    2    0    0  0.21568242887E-01 -0.18224762497E-02  0.56117714737E-02  0.50000500000E+01  0.50000000000E+01 0. -1.
         50    1    1    2    0    0 -0.21568242887E-01  0.18224762497E-02 -0.56117714737E-02  0.50000500000E+01  0.50000000000E+01 0.  1.
</event>
<event>
 4    1  0.5060607E-021  0.5000050E+01  0.7818608E-02  0.2136455E+00
        -11   -1    0    0    0    0  0.00000000000E+00  0.00000000000E+00  0.50000499739E+01  0.50000500000E+01  0.51100000000E-03 0.  1.
         11   -1    0    0    0    0 -0.00000000000E+00 -0.00000000000E+00 -0.50000499739E+01  0.50000500000E+01  0.51100000000E-03 0. -1.
         50    1    1    2    0    0  0.97330933896E-02 -0.19097259229E-01  0.63689938779E-02  0.50000500000E+01  0.50000000000E+01 0.  0.
         50    1    1    2    0    0 -0.97330933896E-02  0.19097259229E-01 -0.63689938779E-02  0.50000500000E+01  0.50000000000E+01 0.  1.
</event>
<event>
 4    1  0.5060607E-021  0.5000050E+01  0.7818608E-02  0.2136455E+00
        -11   -1    0    0    0    0  0.00000000000E+00  0.00000000000E+00  0.50000499739E+01  0.50000500000E+01  0.51100000000E-03 0. -1.
         11   -1    0    0    0    0 -0.00000000000E+00 -0.00000000000E+00 -0.50000499739E+01  0.50000500000E+01  0.51100000000E-03 0.  1.
         50    1    1    2    0    0 -0.22024949014E-01  0.26285033459E-02 -0.28275592096E-02  0.50000500000E+01  0.50000000000E+01 0.  0.
         50    1    1    2    0    0  0.22024949014E-01 -0.26285033459E-02  0.28275592096E-02  0.50000500000E+01  0.50000000000E+01 0. -1.
</event>
<event>
 4    1  0.5060607E-021  0.5000050E+01  0.7818608E-02  0.2136455E+00
        -11   -1    0    0    0    0  0.00000000000E+00  0.00000000000E+00  0.50000499739E+01  0.50000500000E+01  0.51100000000E-03 0.  1.
         11   -1    0    0    0    0 -0.00000000000E+00 -0.00000000000E+00 -0.50000499739E+01  0.50000500000E+01  0.51100000000E-03 0. -1.
         50    1    1    2    0    0 -0.14656732702E-02 -0.22247654871E-01  0.17018092176E-02  0.50000500000E+01  0.50000000000E+01 0.  1.
         50    1    1    2    0    0  0.14656732702E-02  0.22247654871E-01 -0.17018092176E-02  0.50000500000E+01  0.50000000000E+01 0. -1.
</event>
<event>
 4    1  0.5060607E-021  0.5000050E+01  0.7818608E-02  0.2136455E+00
        -11   -1    0    0    0    0  0.00000000000E+00  0.00000000000E+00  0.50000499739E+01  0.50000500000E+01  0.51100000000E-03 0. -1.
         11   -1    0    0    0    0 -0.00000000000E+00 -0.00000000000E+00 -0.50000499739E+01  0.50000500000E+01  0.51100000000E-03 0.  1.
         50    1    1    2    0    0  0.17520996251E-01  0.13015749984E-01 -0.48587490906E-02  0.50000500000E+01  0.50000000000E+01 0. -1.
         50    1    1    2    0    0 -0.17520996251E-01 -0.13015749984E-01  0.48587490906E-02  0.50000500000E+01  0.50000000000E+01 0.  1.
</event>
<event>
 4    1  0.5060607E-021  0.5000050E+01  0.7818608E-02  0.2136455E+00
        -11   -1    0    0    0    0  0.00000000000E+00  0.00000000000E+00  0.50000499739E+01  0.50000500000E+01  0.51100000000E-03 0.  1.
         11   -1    0    0    0    0 -0.00000000000E+00 -0.00000000000E+00 -0.50000499739E+01  0.50000500000E+01  0.51100000000E-03 0. -1.
         50    1    1    2    0    0 -0.17449071710E-01 -0.60158863536E-02  0.12623054616E-01  0.50000500000E+01  0.50000000000E+01 0. -1.
         50    1    1    2    0    0  0.17449071710E-01  0.60158863536E-02 -0.12623054616E-01  0.50000500000E+01  0.50000000000E+01 0.  0.
</event>
<event>
 4    1  0.5060607E-021  0.5000050E+01  0.7818608E-02  0.2136455E+00
        -11   -1    0    0    0    0  0.00000000000E+00  0.00000000000E+00  0.50000499739E+01  0.50000500000E+01  0.51100000000E-03 0.  1.
         11   -1    0    0    0    0 -0.00000000000E+00 -0.00000000000E+00 -0.50000499739E+01  0.50000500000E+01  0.51100000000E-03 0. -1.
         50    1    1    2    0    0  0.16195328391E-02  0.50588613685E-02  0.21720670686E-01  0.50000500000E+01  0.50000000000E+01 0.  1.
         50    1    1    2    0    0 -0.16195328391E-02 -0.50588613685E-02 -0.21720670686E-01  0.50000500000E+01  0.50000000000E+01 0.  0.
</event>
<event>
 4    1  0.5060607E-021  0.5000050E+01  0.7818608E-02  0.2136455E+00
        -11   -1    0    0    0    0  0.00000000000E+00  0.00000000000E+00  0.50000499739E+01  0.50000500000E+01  0.51100000000E-03 0. -1.
         11   -1    0    0    0    0 -0.00000000000E+00 -0.00000000000E+00 -0.50000499739E+01  0.50000500000E+01  0.51100000000E-03 0.  1.
         50    1    1    2    0    0  0.11408577065E-01 -0.29372534990E-02  0.19005773103E-01  0.50000500000E+01  0.50000000000E+01 0. -1.
         50    1    1    2    0    0 -0.11408577065E-01  0.29372534990E-02 -0.19005773103E-01  0.50000500000E+01  0.50000000000E+01 0.  1.
</event>
<event>
 4    1  0.5060607E-021  0.5000050E+01  0.7818608E-02  0.2136455E+00
        -11   -1    0    0    0    0  0.00000000000E+00  0.00000000000E+00  0.50000499739E+01  0.50000500000E+01  0.51100000000E-03 0.  1.
         11   -1    0    0    0    0 -0.00000000000E+00 -0.00000000000E+00 -0.50000499739E+01  0.50000500000E+01  0.51100000000E-03 0. -1.
         50    1    1    2    0    0  0.88264552874E-03  0.22342976524E-01 -0.12180696252E-03  0.50000500000E+01  0.50000000000E+01 0. -1.
         50    1    1    2    0    0 -0.88264552874E-03 -0.22342976524E-01  0.12180696252E-03  0.50000500000E+01  0.50000000000E+01 0.  1.
</event>
<event>
 4    1  0.5060607E-021  0.5000050E+01  0.7818608E-02  0.2136455E+00
        -11   -1    0    0    0    0  0.00000000000E+00  0.00000000000E+00  0.50000499739E+01  0.50000500000E+01  0.51100000000E-03 0.  1.
         11   -1    0    0    0    0 -0.00000000000E+00 -0.00000000000E+00 -0.50000499739E+01  0.50000500000E+01  0.51100000000E-03 0. -1.
         50    1    1    2    0    0  0.25789570871E-02  0.20963557503E-01  0.73403499338E-02  0.50000500000E+01  0.50000000000E+01 0.  1.
         50    1    1    2    0    0 -0.25789570871E-02 -0.20963557503E-01 -0.73403499338E-02  0.50000500000E+01  0.50000000000E+01 0. -1.
</event>
<event>
 4    1  0.5060607E-021  0.5000050E+01  0.7818608E-02  0.2136455E+00
        -11   -1    0    0    0    0  0.00000000000E+00  0.00000000000E+00  0.50000499739E+01  0.50000500000E+01  0.51100000000E-03 0.  1.
         11   -1    0    0    0    0 -0.00000000000E+00 -0.00000000000E+00 -0.50000499739E+01  0.50000500000E+01  0.51100000000E-03 0. -1.
         50    1    1    2    0    0 -0.43102994062E-02 -0.21671691075E-01  0.34295225551E-02  0.50000500000E+01  0.50000000000E+01 0. -1.
         50    1    1    2    0    0  0.43102994062E-02  0.21671691075E-01 -0.34295225551E-02  0.50000500000E+01  0.50000000000E+01 0.  0.
</event>
<event>
 4    1  0.5060607E-021  0.5000050E+01  0.7818608E-02  0.2136455E+00
        -11   -1    0    0    0    0  0.00000000000E+00  0.00000000000E+00  0.50000499739E+01  0.50000500000E+01  0.51100000000E-03 0.  1.
         11   -1    0    0    0    0 -0.00000000000E+00 -0.00000000000E+00 -0.50000499739E+01  0.50000500000E+01  0.51100000000E-03 0. -1.
         50    1    1    2    0    0 -0.12076944289E-01 -0.65341478229E-02 -0.17648082867E-01  0.50000500000E+01  0.50000000000E+01 0.  0.
         50    1    1    2    0    0  0.12076944289E-01  0.65341478229E-02  0.17648082867E-01  0.50000500000E+01  0.50000000000E+01 0.  0.
</event>
<event>
 4    1  0.5060607E-021  0.5000050E+01  0.7818608E-02  0.2136455E+00
        -11   -1    0    0    0    0  0.00000000000E+00  0.00000000000E+00  0.50000499739E+01  0.50000500000E+01  0.51100000000E-03 0. -1.
         11   -1    0    0    0    0 -0.00000000000E+00 -0.00000000000E+00 -0.50000499739E+01  0.50000500000E+01  0.51100000000E-03 0.  1.
         50    1    1    2    0    0  0.93503945250E-03 -0.21900721575E-01 -0.44143624371E-02  0.50000500000E+01  0.50000000000E+01 0.  1.
         50    1    1    2    0    0 -0.93503945250E-03  0.21900721575E-01  0.44143624371E-02  0.50000500000E+01  0.50000000000E+01 0. -1.
</event>
<event>
 4    1  0.5060607E-021  0.5000050E+01  0.7818608E-02  0.2136455E+00
        -11   -1    0    0    0    0  0.00000000000E+00  0.00000000000E+00  0.50000499739E+01  0.50000500000E+01  0.51100000000E-03 0. -1.
         11   -1    0    0    0    0 -0.00000000000E+00 -0.00000000000E+00 -0.50000499739E+01  0.50000500000E+01  0.51100000000E-03 0.  1.
         50    1    1    2    0    0 -0.47884527398E-02 -0.20905837796E-01  0.63260703758E-02  0.50000500000E+01  0.50000000000E+01 0. -1.
         50    1    1    2    0    0  0.47884527398E-02  0.20905837796E-01 -0.63260703758E-02  0.50000500000E+01  0.50000000000E+01 0.  1.
</event>
<event>
 4    1  0.5060607E-021  0.5000050E+01  0.7818608E-02  0.2136455E+00
        -11   -1    0    0    0    0  0.00000000000E+00  0.00000000000E+00  0.50000499739E+01  0.50000500000E+01  0.51100000000E-03 0. -1.
         11   -1    0    0    0    0 -0.00000000000E+00 -0.00000000000E+00 -0.50000499739E+01  0.50000500000E+01  0.51100000000E-03 0.  1.
         50    1    1    2    0    0  0.67543201677E-02  0.20158135830E-01  0.69304558962E-02  0.50000500000E+01  0.50000000000E+01 0.  1.
         50    1    1    2    0    0 -0.67543201677E-02 -0.20158135830E-01 -0.69304558962E-02  0.50000500000E+01  0.50000000000E+01 0.  0.
</event>
<event>
 4    1  0.5060607E-021  0.5000050E+01  0.7818608E-02  0.2136455E+00
        -11   -1    0    0    0    0  0.00000000000E+00  0.00000000000E+00  0.50000499739E+01  0.50000500000E+01  0.51100000000E-03 0.  1.
         11   -1    0    0    0    0 -0.00000000000E+00 -0.00000000000E+00 -0.50000499739E+01  0.50000500000E+01  0.51100000000E-03 0. -1.
         50    1    1    2    0    0  0.11992787698E-01 -0.18722674706E-01  0.23742356823E-02  0.50000500000E+01  0.50000000000E+01 0.  0.
         50    1    1    2    0    0 -0.11992787698E-01  0.18722674706E-01 -0.23742356823E-02  0.50000500000E+01  0.50000000000E+01 0.  1.
</event>
<event>
 4    1  0.5060607E-021  0.5000050E+01  0.7818608E-02  0.2136455E+00
        -11   -1    0    0    0    0  0.00000000000E+00  0.00000000000E+00  0.50000499739E+01  0.50000500000E+01  0.51100000000E-03 0.  1.
         11   -1    0    0    0    0 -0.00000000000E+00 -0.00000000000E+00 -0.50000499739E+01  0.50000500000E+01  0.51100000000E-03 0. -1.
         50    1    1    2    0    0 -0.14211568932E-01  0.97444369507E-02  0.14250605496E-01  0.50000500000E+01  0.50000000000E+01 0.  1.
         50    1    1    2    0    0  0.14211568932E-01 -0.97444369507E-02 -0.14250605496E-01  0.50000500000E+01  0.50000000000E+01 0. -1.
</event>
<event>
 4    1  0.5060607E-021  0.5000050E+01  0.7818608E-02  0.2136455E+00
        -11   -1    0    0    0    0  0.00000000000E+00  0.00000000000E+00  0.50000499739E+01  0.50000500000E+01  0.51100000000E-03 0. -1.
         11   -1    0    0    0    0 -0.00000000000E+00 -0.00000000000E+00 -0.50000499739E+01  0.50000500000E+01  0.51100000000E-03 0.  1.
         50    1    1    2    0    0  0.13418524403E-01 -0.54991279747E-02  0.17020731311E-01  0.50000500000E+01  0.50000000000E+01 0. -1.
         50    1    1    2    0    0 -0.13418524403E-01  0.54991279747E-02 -0.17020731311E-01  0.50000500000E+01  0.50000000000E+01 0.  0.
</event>
<event>
 4    1  0.5060607E-021  0.5000050E+01  0.7818608E-02  0.2136455E+00
        -11   -1    0    0    0    0  0.00000000000E+00  0.00000000000E+00  0.50000499739E+01  0.50000500000E+01  0.51100000000E-03 0. -1.
         11   -1    0    0    0    0 -0.00000000000E+00 -0.00000000000E+00 -0.50000499739E+01  0.50000500000E+01  0.51100000000E-03 0.  1.
         50    1    1    2    0    0  0.16953480114E-01 -0.54653568972E-02 -0.13517096064E-01  0.50000500000E+01  0.50000000000E+01 0.  1.
         50    1    1    2    0    0 -0.16953480114E-01  0.54653568972E-02  0.13517096064E-01  0.50000500000E+01  0.50000000000E+01 0. -1.
</event>
<event>
 4    1  0.5060607E-021  0.5000050E+01  0.7818608E-02  0.2136455E+00
        -11   -1    0    0    0    0  0.00000000000E+00  0.00000000000E+00  0.50000499739E+01  0.50000500000E+01  0.51100000000E-03 0. -1.
         11   -1    0    0    0    0 -0.00000000000E+00 -0.00000000000E+00 -0.50000499739E+01  0.50000500000E+01  0.51100000000E-03 0.  1.
         50    1    1    2    0    0  0.69485004879E-02 -0.13488999601E-01 -0.16424607475E-01  0.50000500000E+01  0.50000000000E+01 0.  0.
         50    1    1    2    0    0 -0.69485004879E-02  0.13488999601E-01  0.16424607475E-01  0.50000500000E+01  0.50000000000E+01 0.  0.
</event>
<event>
 4    1  0.5060607E-021  0.5000050E+01  0.7818608E-02  0.2136455E+00
        -11   -1    0    0    0    0  0.00000000000E+00  0.00000000000E+00  0.50000499739E+01  0.50000500000E+01  0.51100000000E-03 0. -1.
         11   -1    0    0    0    0 -0.00000000000E+00 -0.00000000000E+00 -0.50000499739E+01  0.50000500000E+01  0.51100000000E-03 0.  1.
         50    1    1    2    0    0 -0.12154636820E-01 -0.15546884973E-01 -0.10514831020E-01  0.50000500000E+01  0.50000000000E+01 0. -1.
         50    1    1    2    0    0  0.12154636820E-01  0.15546884973E-01  0.10514831020E-01  0.50000500000E+01  0.50000000000E+01 0.  1.
</event>
<event>
 4    1  0.5060607E-021  0.5000050E+01  0.7818608E-02  0.2136455E+00
        -11   -1    0    0    0    0  0.00000000000E+00  0.00000000000E+00  0.50000499739E+01  0.50000500000E+01  0.51100000000E-03 0.  1.
         11   -1    0    0    0    0 -0.00000000000E+00 -0.00000000000E+00 -0.50000499739E+01  0.50000500000E+01  0.51100000000E-03 0. -1.
         50    1    1    2    0    0  0.97150545529E-02  0.18355662700E-01  0.82879347179E-02  0.50000500000E+01  0.50000000000E+01 0.  0.
         50    1    1    2    0    0 -0.97150545529E-02 -0.18355662700E-01 -0.82879347179E-02  0.50000500000E+01  0.50000000000E+01 0.  0.
</event>
<event>
 4    1  0.5060607E-021  0.5000050E+01  0.7818608E-02  0.2136455E+00
        -11   -1    0    0    0    0  0.00000000000E+00  0.00000000000E+00  0.50000499739E+01  0.50000500000E+01  0.51100000000E-03 0.  1.
         11   -1    0    0    0    0 -0.00000000000E+00 -0.00000000000E+00 -0.50000499739E+01  0.50000500000E+01  0.51100000000E-03 0. -1.
         50    1    1    2    0    0 -0.92921880028E-02  0.10801195985E-01  0.17233453148E-01  0.50000500000E+01  0.50000000000E+01 0.  0.
         50    1    1    2    0    0  0.92921880028E-02 -0.10801195985E-01 -0.17233453148E-01  0.50000500000E+01  0.50000000000E+01 0.  0.
</event>
<event>
 4    1  0.5060607E-021  0.5000050E+01  0.7818608E-02  0.2136455E+00
        -11   -1    0    0    0    0  0.00000000000E+00  0.00000000000E+00  0.50000499739E+01  0.50000500000E+01  0.51100000000E-03 0. -1.
         11   -1    0    0    0    0 -0.00000000000E+00 -0.00000000000E+00 -0.50000499739E+01  0.50000500000E+01  0.51100000000E-03 0.  1.
         50    1    1    2    0    0  0.90024183701E-02 -0.20440208400E-01 -0.10755668536E-02  0.50000500000E+01  0.50000000000E+01 0.  1.
         50    1    1    2    0    0 -0.90024183701E-02  0.20440208400E-01  0.10755668536E-02  0.50000500000E+01  0.50000000000E+01 0. -1.
</event>
<event>
 4    1  0.5060607E-021  0.5000050E+01  0.7818608E-02  0.2136455E+00
        -11   -1    0    0    0    0  0.00000000000E+00  0.00000000000E+00  0.50000499739E+01  0.50000500000E+01  0.51100000000E-03 0.  1.
         11   -1    0    0    0    0 -0.00000000000E+00 -0.00000000000E+00 -0.50000499739E+01  0.50000500000E+01  0.51100000000E-03 0. -1.
         50    1    1    2    0    0  0.21012624621E-01 -0.12285420664E-02  0.75473698023E-02  0.50000500000E+01  0.50000000000E+01 0.  0.
         50    1    1    2    0    0 -0.21012624621E-01  0.12285420664E-02 -0.75473698023E-02  0.50000500000E+01  0.50000000000E+01 0. -1.
</event>
<event>
 4    1  0.5060607E-021  0.5000050E+01  0.7818608E-02  0.2136455E+00
        -11   -1    0    0    0    0  0.00000000000E+00  0.00000000000E+00  0.50000499739E+01  0.50000500000E+01  0.51100000000E-03 0. -1.
         11   -1    0    0    0    0 -0.00000000000E+00 -0.00000000000E+00 -0.50000499739E+01  0.50000500000E+01  0.51100000000E-03 0.  1.
         50    1    1    2    0    0 -0.21423829210E-01  0.51659733337E-02 -0.37861275076E-02  0.50000500000E+01  0.50000000000E+01 0. -1.
         50    1    1    2    0    0  0.21423829210E-01 -0.51659733337E-02  0.37861275076E-02  0.50000500000E+01  0.50000000000E+01 0.  1.
</event>
<event>
 4    1  0.5060607E-021  0.5000050E+01  0.7818608E-02  0.2136455E+00
        -11   -1    0    0    0    0  0.00000000000E+00  0.00000000000E+00  0.50000499739E+01  0.50000500000E+01  0.51100000000E-03 0.  1.
         11   -1    0    0    0    0 -0.00000000000E+00 -0.00000000000E+00 -0.50000499739E+01  0.50000500000E+01  0.51100000000E-03 0. -1.
         50    1    1    2    0    0  0.27810846746E-03  0.17438148806E-01  0.13994145986E-01  0.50000500000E+01  0.50000000000E+01 0.  0.
         50    1    1    2    0    0 -0.27810846746E-03 -0.17438148806E-01 -0.13994145986E-01  0.50000500000E+01  0.50000000000E+01 0.  0.
</event>
<event>
 4    1  0.5060607E-021  0.5000050E+01  0.7818608E-02  0.2136455E+00
        -11   -1    0    0    0    0  0.00000000000E+00  0.00000000000E+00  0.50000499739E+01  0.50000500000E+01  0.51100000000E-03 0. -1.
         11   -1    0    0    0    0 -0.00000000000E+00 -0.00000000000E+00 -0.50000499739E+01  0.50000500000E+01  0.51100000000E-03 0.  1.
         50    1    1    2    0    0  0.54637518103E-02 -0.12624524619E-01 -0.17628706540E-01  0.50000500000E+01  0.50000000000E+01 0.  0.
         50    1    1    2    0    0 -0.54637518103E-02  0.12624524619E-01  0.17628706540E-01  0.50000500000E+01  0.50000000000E+01 0.  0.
</event>
<event>
 4    1  0.5060607E-021  0.5000050E+01  0.7818608E-02  0.2136455E+00
        -11   -1    0    0    0    0  0.00000000000E+00  0.00000000000E+00  0.50000499739E+01  0.50000500000E+01  0.51100000000E-03 0.  1.
         11   -1    0    0    0    0 -0.00000000000E+00 -0.00000000000E+00 -0.50000499739E+01  0.50000500000E+01  0.51100000000E-03 0. -1.
         50    1    1    2    0    0  0.15820718475E-01  0.12988408293E-01  0.90004787074E-02  0.50000500000E+01  0.50000000000E+01 0.  1.
         50    1    1    2    0    0 -0.15820718475E-01 -0.12988408293E-01 -0.90004787074E-02  0.50000500000E+01  0.50000000000E+01 0. -1.
</event>
<event>
 4    1  0.5060607E-021  0.5000050E+01  0.7818608E-02  0.2136455E+00
        -11   -1    0    0    0    0  0.00000000000E+00  0.00000000000E+00  0.50000499739E+01  0.50000500000E+01  0.51100000000E-03 0.  1.
         11   -1    0    0    0    0 -0.00000000000E+00 -0.00000000000E+00 -0.50000499739E+01  0.50000500000E+01  0.51100000000E-03 0. -1.
         50    1    1    2    0    0 -0.19089287335E-01 -0.66636026778E-02 -0.95497648348E-02  0.50000500000E+01  0.50000000000E+01 0.  0.
         50    1    1    2    0    0  0.19089287335E-01  0.66636026778E-02  0.95497648348E-02  0.50000500000E+01  0.50000000000E+01 0.  1.
</event>
<event>
 4    1  0.5060607E-021  0.5000050E+01  0.7818608E-02  0.2136455E+00
        -11   -1    0    0    0    0  0.00000000000E+00  0.00000000000E+00  0.50000499739E+01  0.50000500000E+01  0.51100000000E-03 0. -1.
         11   -1    0    0    0    0 -0.00000000000E+00 -0.00000000000E+00 -0.50000499739E+01  0.50000500000E+01  0.51100000000E-03 0.  1.
         50    1    1    2    0    0  0.63878051143E-02  0.17447667633E-01  0.12440954143E-01  0.50000500000E+01  0.50000000000E+01 0. -1.
         50    1    1    2    0    0 -0.63878051143E-02 -0.17447667633E-01 -0.12440954143E-01  0.50000500000E+01  0.50000000000E+01 0.  1.
</event>
<event>
 4    1  0.5060607E-021  0.5000050E+01  0.7818608E-02  0.2136455E+00
        -11   -1    0    0    0    0  0.00000000000E+00  0.00000000000E+00  0.50000499739E+01  0.50000500000E+01  0.51100000000E-03 0.  1.
         11   -1    0    0    0    0 -0.00000000000E+00 -0.00000000000E+00 -0.50000499739E+01  0.50000500000E+01  0.51100000000E-03 0. -1.
         50    1    1    2    0    0  0.14472799021E-01  0.16979818243E-01 -0.14920994999E-02  0.50000500000E+01  0.50000000000E+01 0. -1.
         50    1    1    2    0    0 -0.14472799021E-01 -0.16979818243E-01  0.14920994999E-02  0.50000500000E+01  0.50000000000E+01 0.  1.
</event>
<event>
 4    1  0.5060607E-021  0.5000050E+01  0.7818608E-02  0.2136455E+00
        -11   -1    0    0    0    0  0.00000000000E+00  0.00000000000E+00  0.50000499739E+01  0.50000500000E+01  0.51100000000E-03 0.  1.
         11   -1    0    0    0    0 -0.00000000000E+00 -0.00000000000E+00 -0.50000499739E+01  0.50000500000E+01  0.51100000000E-03 0. -1.
         50    1    1    2    0    0 -0.14650182272E-02 -0.12643884585E-01 -0.18384460944E-01  0.50000500000E+01  0.50000000000E+01 0. -1.
         50    1    1    2    0    0  0.14650182272E-02  0.12643884585E-01  0.18384460944E-01  0.50000500000E+01  0.50000000000E+01 0.  0.
</event>
<event>
 4    1  0.5060607E-021  0.5000050E+01  0.7818608E-02  0.2136455E+00
        -11   -1    0    0    0    0  0.00000000000E+00  0.00000000000E+00  0.50000499739E+01  0.50000500000E+01  0.51100000000E-03 0. -1.
         11   -1    0    0    0    0 -0.00000000000E+00 -0.00000000000E+00 -0.50000499739E+01  0.50000500000E+01  0.51100000000E-03 0.  1.
         50    1    1    2    0    0 -0.12719124705E-01  0.15441240683E-01 -0.99897173587E-02  0.50000500000E+01  0.50000000000E+01 0.  0.
         50    1    1    2    0    0  0.12719124705E-01 -0.15441240683E-01  0.99897173587E-02  0.50000500000E+01  0.50000000000E+01 0.  0.
</event>
<event>
 4    1  0.5060607E-021  0.5000050E+01  0.7818608E-02  0.2136455E+00
        -11   -1    0    0    0    0  0.00000000000E+00  0.00000000000E+00  0.50000499739E+01  0.50000500000E+01  0.51100000000E-03 0. -1.
         11   -1    0    0    0    0 -0.00000000000E+00 -0.00000000000E+00 -0.50000499739E+01  0.50000500000E+01  0.51100000000E-03 0.  1.
         50    1    1    2    0    0  0.84074604472E-02  0.95187894536E-02 -0.18404069011E-01  0.50000500000E+01  0.50000000000E+01 0.  0.
         50    1    1    2    0    0 -0.84074604472E-02 -0.95187894536E-02  0.18404069011E-01  0.50000500000E+01  0.50000000000E+01 0.  0.
</event>
<event>
 4    1  0.5060607E-021  0.5000050E+01  0.7818608E-02  0.2136455E+00
        -11   -1    0    0    0    0  0.00000000000E+00  0.00000000000E+00  0.50000499739E+01  0.50000500000E+01  0.51100000000E-03 0.  1.
         11   -1    0    0    0    0 -0.00000000000E+00 -0.00000000000E+00 -0.50000499739E+01  0.50000500000E+01  0.51100000000E-03 0. -1.
         50    1    1    2    0    0  0.67684719136E-02 -0.16366115216E-01  0.13650661548E-01  0.50000500000E+01  0.50000000000E+01 0. -1.
         50    1    1    2    0    0 -0.67684719136E-02  0.16366115216E-01 -0.13650661548E-01  0.50000500000E+01  0.50000000000E+01 0.  0.
</event>
<event>
 4    1  0.5060607E-021  0.5000050E+01  0.7818608E-02  0.2136455E+00
        -11   -1    0    0    0    0  0.00000000000E+00  0.00000000000E+00  0.50000499739E+01  0.50000500000E+01  0.51100000000E-03 0. -1.
         11   -1    0    0    0    0 -0.00000000000E+00 -0.00000000000E+00 -0.50000499739E+01  0.50000500000E+01  0.51100000000E-03 0.  1.
         50    1    1    2    0    0  0.23379743971E-02 -0.10054010405E-01 -0.19835656039E-01  0.50000500000E+01  0.50000000000E+01 0.  0.
         50    1    1    2    0    0 -0.23379743971E-02  0.10054010405E-01  0.19835656039E-01  0.50000500000E+01  0.50000000000E+01 0. -1.
</event>
<event>
 4    1  0.5060607E-021  0.5000050E+01  0.7818608E-02  0.2136455E+00
        -11   -1    0    0    0    0  0.00000000000E+00  0.00000000000E+00  0.50000499739E+01  0.50000500000E+01  0.51100000000E-03 0. -1.
         11   -1    0    0    0    0 -0.00000000000E+00 -0.00000000000E+00 -0.50000499739E+01  0.50000500000E+01  0.51100000000E-03 0.  1.
         50    1    1    2    0    0 -0.10616811276E-01  0.42235023546E-02  0.19221026148E-01  0.50000500000E+01  0.50000000000E+01 0.  0.
         50    1    1    2    0    0  0.10616811276E-01 -0.42235023546E-02 -0.19221026148E-01  0.50000500000E+01  0.50000000000E+01 0.  1.
</event>
<event>
 4    1  0.5060607E-021  0.5000050E+01  0.7818608E-02  0.2136455E+00
        -11   -1    0    0    0    0  0.00000000000E+00  0.00000000000E+00  0.50000499739E+01  0.50000500000E+01  0.51100000000E-03 0.  1.
         11   -1    0    0    0    0 -0.00000000000E+00 -0.00000000000E+00 -0.50000499739E+01  0.50000500000E+01  0.51100000000E-03 0. -1.
         50    1    1    2    0    0 -0.58906068165E-02 -0.81240413796E-02  0.19982572482E-01  0.50000500000E+01  0.50000000000E+01 0.  0.
         50    1    1    2    0    0  0.58906068165E-02  0.81240413796E-02 -0.19982572482E-01  0.50000500000E+01  0.50000000000E+01 0. -1.
</event>
<event>
 4    1  0.5060607E-021  0.5000050E+01  0.7818608E-02  0.2136455E+00
        -11   -1    0    0    0    0  0.00000000000E+00  0.00000000000E+00  0.50000499739E+01  0.50000500000E+01  0.51100000000E-03 0.  1.
         11   -1    0    0    0    0 -0.00000000000E+00 -0.00000000000E+00 -0.50000499739E+01  0.50000500000E+01  0.51100000000E-03 0. -1.
         50    1    1    2    0    0 -0.52190747938E-02 -0.19350454169E-01 -0.99158298572E-02  0.50000500000E+01  0.50000000000E+01 0.  0.
         50    1    1    2    0    0  0.52190747938E-02  0.19350454169E-01  0.99158298572E-02  0.50000500000E+01  0.50000000000E+01 0. -1.
</event>
<event>
 4    1  0.5060607E-021  0.5000050E+01  0.7818608E-02  0.2136455E+00
        -11   -1    0    0    0    0  0.00000000000E+00  0.00000000000E+00  0.50000499739E+01  0.50000500000E+01  0.51100000000E-03 0. -1.
         11   -1    0    0    0    0 -0.00000000000E+00 -0.00000000000E+00 -0.50000499739E+01  0.50000500000E+01  0.51100000000E-03 0.  1.
         50    1    1    2    0    0 -0.11951352746E-02 -0.22328675904E-01 -0.66212017439E-04  0.50000500000E+01  0.50000000000E+01 0.  0.
         50    1    1    2    0    0  0.11951352746E-02  0.22328675904E-01  0.66212017440E-04  0.50000500000E+01  0.50000000000E+01 0.  1.
</event>
<event>
 4    1  0.5060607E-021  0.5000050E+01  0.7818608E-02  0.2136455E+00
        -11   -1    0    0    0    0  0.00000000000E+00  0.00000000000E+00  0.50000499739E+01  0.50000500000E+01  0.51100000000E-03 0. -1.
         11   -1    0    0    0    0 -0.00000000000E+00 -0.00000000000E+00 -0.50000499739E+01  0.50000500000E+01  0.51100000000E-03 0.  1.
         50    1    1    2    0    0 -0.12439983044E-01 -0.16325056058E-01  0.88736613969E-02  0.50000500000E+01  0.50000000000E+01 0.  0.
         50    1    1    2    0    0  0.12439983044E-01  0.16325056058E-01 -0.88736613969E-02  0.50000500000E+01  0.50000000000E+01 0.  0.
</event>
<event>
 4    1  0.5060607E-021  0.5000050E+01  0.7818608E-02  0.2136455E+00
        -11   -1    0    0    0    0  0.00000000000E+00  0.00000000000E+00  0.50000499739E+01  0.50000500000E+01  0.51100000000E-03 0. -1.
         11   -1    0    0    0    0 -0.00000000000E+00 -0.00000000000E+00 -0.50000499739E+01  0.50000500000E+01  0.51100000000E-03 0.  1.
         50    1    1    2    0    0 -0.20043305926E-01  0.89702684102E-03  0.98723720757E-02  0.50000500000E+01  0.50000000000E+01 0.  0.
         50    1    1    2    0    0  0.20043305926E-01 -0.89702684102E-03 -0.98723720757E-02  0.50000500000E+01  0.50000000000E+01 0.  0.
</event>
<event>
 4    1  0.5060607E-021  0.5000050E+01  0.7818608E-02  0.2136455E+00
        -11   -1    0    0    0    0  0.00000000000E+00  0.00000000000E+00  0.50000499739E+01  0.50000500000E+01  0.51100000000E-03 0.  1.
         11   -1    0    0    0    0 -0.00000000000E+00 -0.00000000000E+00 -0.50000499739E+01  0.50000500000E+01  0.51100000000E-03 0. -1.
         50    1    1    2    0    0  0.13909438364E-01 -0.10289766448E-01  0.14165123750E-01  0.50000500000E+01  0.50000000000E+01 0.  0.
         50    1    1    2    0    0 -0.13909438364E-01  0.10289766448E-01 -0.14165123750E-01  0.50000500000E+01  0.50000000000E+01 0.  0.
</event>
<event>
 4    1  0.5060607E-021  0.5000050E+01  0.7818608E-02  0.2136455E+00
        -11   -1    0    0    0    0  0.00000000000E+00  0.00000000000E+00  0.50000499739E+01  0.50000500000E+01  0.51100000000E-03 0.  1.
         11   -1    0    0    0    0 -0.00000000000E+00 -0.00000000000E+00 -0.50000499739E+01  0.50000500000E+01  0.51100000000E-03 0. -1.
         50    1    1    2    0    0  0.13731215324E-01 -0.11926931170E-01  0.13007864490E-01  0.50000500000E+01  0.50000000000E+01 0.  1.
         50    1    1    2    0    0 -0.13731215324E-01  0.11926931170E-01 -0.13007864490E-01  0.50000500000E+01  0.50000000000E+01 0. -1.
</event>
<event>
 4    1  0.5060607E-021  0.5000050E+01  0.7818608E-02  0.2136455E+00
        -11   -1    0    0    0    0  0.00000000000E+00  0.00000000000E+00  0.50000499739E+01  0.50000500000E+01  0.51100000000E-03 0.  1.
         11   -1    0    0    0    0 -0.00000000000E+00 -0.00000000000E+00 -0.50000499739E+01  0.50000500000E+01  0.51100000000E-03 0. -1.
         50    1    1    2    0    0  0.17750134347E-01  0.10784453679E-01 -0.82843701924E-02  0.50000500000E+01  0.50000000000E+01 0. -1.
         50    1    1    2    0    0 -0.17750134347E-01 -0.10784453679E-01  0.82843701924E-02  0.50000500000E+01  0.50000000000E+01 0.  1.
</event>
<event>
 4    1  0.5060607E-021  0.5000050E+01  0.7818608E-02  0.2136455E+00
        -11   -1    0    0    0    0  0.00000000000E+00  0.00000000000E+00  0.50000499739E+01  0.50000500000E+01  0.51100000000E-03 0.  1.
         11   -1    0    0    0    0 -0.00000000000E+00 -0.00000000000E+00 -0.50000499739E+01  0.50000500000E+01  0.51100000000E-03 0. -1.
         50    1    1    2    0    0 -0.17954315993E-01  0.51359864662E-02 -0.12299052006E-01  0.50000500000E+01  0.50000000000E+01 0.  0.
         50    1    1    2    0    0  0.17954315993E-01 -0.51359864662E-02  0.12299052006E-01  0.50000500000E+01  0.50000000000E+01 0.  0.
</event>
<event>
 4    1  0.5060607E-021  0.5000050E+01  0.7818608E-02  0.2136455E+00
        -11   -1    0    0    0    0  0.00000000000E+00  0.00000000000E+00  0.50000499739E+01  0.50000500000E+01  0.51100000000E-03 0. -1.
         11   -1    0    0    0    0 -0.00000000000E+00 -0.00000000000E+00 -0.50000499739E+01  0.50000500000E+01  0.51100000000E-03 0.  1.
         50    1    1    2    0    0 -0.16615238030E-01  0.13718842147E-01 -0.59774355162E-02  0.50000500000E+01  0.50000000000E+01 0.  1.
         50    1    1    2    0    0  0.16615238030E-01 -0.13718842147E-01  0.59774355162E-02  0.50000500000E+01  0.50000000000E+01 0. -1.
</event>
<event>
 4    1  0.5060607E-021  0.5000050E+01  0.7818608E-02  0.2136455E+00
        -11   -1    0    0    0    0  0.00000000000E+00  0.00000000000E+00  0.50000499739E+01  0.50000500000E+01  0.51100000000E-03 0.  1.
         11   -1    0    0    0    0 -0.00000000000E+00 -0.00000000000E+00 -0.50000499739E+01  0.50000500000E+01  0.51100000000E-03 0. -1.
         50    1    1    2    0    0  0.10968316619E-01 -0.13788134846E-01  0.13769018411E-01  0.50000500000E+01  0.50000000000E+01 0.  0.
         50    1    1    2    0    0 -0.10968316619E-01  0.13788134846E-01 -0.13769018411E-01  0.50000500000E+01  0.50000000000E+01 0.  0.
</event>
<event>
 4    1  0.5060607E-021  0.5000050E+01  0.7818608E-02  0.2136455E+00
        -11   -1    0    0    0    0  0.00000000000E+00  0.00000000000E+00  0.50000499739E+01  0.50000500000E+01  0.51100000000E-03 0. -1.
         11   -1    0    0    0    0 -0.00000000000E+00 -0.00000000000E+00 -0.50000499739E+01  0.50000500000E+01  0.51100000000E-03 0.  1.
         50    1    1    2    0    0 -0.17819895769E-01 -0.84339882764E-02 -0.10550907854E-01  0.50000500000E+01  0.50000000000E+01 0.  1.
         50    1    1    2    0    0  0.17819895769E-01  0.84339882764E-02  0.10550907854E-01  0.50000500000E+01  0.50000000000E+01 0. -1.
</event>
<event>
 4    1  0.5060607E-021  0.5000050E+01  0.7818608E-02  0.2136455E+00
        -11   -1    0    0    0    0  0.00000000000E+00  0.00000000000E+00  0.50000499739E+01  0.50000500000E+01  0.51100000000E-03 0.  1.
         11   -1    0    0    0    0 -0.00000000000E+00 -0.00000000000E+00 -0.50000499739E+01  0.50000500000E+01  0.51100000000E-03 0. -1.
         50    1    1    2    0    0 -0.17400843340E-01 -0.11642528345E-01  0.78526864687E-02  0.50000500000E+01  0.50000000000E+01 0.  0.
         50    1    1    2    0    0  0.17400843340E-01  0.11642528345E-01 -0.78526864687E-02  0.50000500000E+01  0.50000000000E+01 0.  0.
</event>
<event>
 4    1  0.5060607E-021  0.5000050E+01  0.7818608E-02  0.2136455E+00
        -11   -1    0    0    0    0  0.00000000000E+00  0.00000000000E+00  0.50000499739E+01  0.50000500000E+01  0.51100000000E-03 0.  1.
         11   -1    0    0    0    0 -0.00000000000E+00 -0.00000000000E+00 -0.50000499739E+01  0.50000500000E+01  0.51100000000E-03 0. -1.
         50    1    1    2    0    0  0.88246357355E-02  0.26387598689E-02 -0.20375604297E-01  0.50000500000E+01  0.50000000000E+01 0. -1.
         50    1    1    2    0    0 -0.88246357355E-02 -0.26387598689E-02  0.20375604297E-01  0.50000500000E+01  0.50000000000E+01 0.  1.
</event>
<event>
 4    1  0.5060607E-021  0.5000050E+01  0.7818608E-02  0.2136455E+00
        -11   -1    0    0    0    0  0.00000000000E+00  0.00000000000E+00  0.50000499739E+01  0.50000500000E+01  0.51100000000E-03 0.  1.
         11   -1    0    0    0    0 -0.00000000000E+00 -0.00000000000E+00 -0.50000499739E+01  0.50000500000E+01  0.51100000000E-03 0. -1.
         50    1    1    2    0    0 -0.17031661003E-01  0.26158120142E-02  0.14250703526E-01  0.50000500000E+01  0.50000000000E+01 0.  1.
         50    1    1    2    0    0  0.17031661003E-01 -0.26158120142E-02 -0.14250703526E-01  0.50000500000E+01  0.50000000000E+01 0. -1.
</event>
<event>
 4    1  0.5060607E-021  0.5000050E+01  0.7818608E-02  0.2136455E+00
        -11   -1    0    0    0    0  0.00000000000E+00  0.00000000000E+00  0.50000499739E+01  0.50000500000E+01  0.51100000000E-03 0.  1.
         11   -1    0    0    0    0 -0.00000000000E+00 -0.00000000000E+00 -0.50000499739E+01  0.50000500000E+01  0.51100000000E-03 0. -1.
         50    1    1    2    0    0  0.12294676681E-01 -0.10414075154E-01 -0.15504530434E-01  0.50000500000E+01  0.50000000000E+01 0.  1.
         50    1    1    2    0    0 -0.12294676681E-01  0.10414075154E-01  0.15504530434E-01  0.50000500000E+01  0.50000000000E+01 0.  0.
</event>
<event>
 4    1  0.5060607E-021  0.5000050E+01  0.7818608E-02  0.2136455E+00
        -11   -1    0    0    0    0  0.00000000000E+00  0.00000000000E+00  0.50000499739E+01  0.50000500000E+01  0.51100000000E-03 0. -1.
         11   -1    0    0    0    0 -0.00000000000E+00 -0.00000000000E+00 -0.50000499739E+01  0.50000500000E+01  0.51100000000E-03 0.  1.
         50    1    1    2    0    0  0.12141184756E-01  0.80684098505E-02 -0.16955674425E-01  0.50000500000E+01  0.50000000000E+01 0.  1.
         50    1    1    2    0    0 -0.12141184756E-01 -0.80684098505E-02  0.16955674425E-01  0.50000500000E+01  0.50000000000E+01 0. -1.
</event>
<event>
 4    1  0.5060607E-021  0.5000050E+01  0.7818608E-02  0.2136455E+00
        -11   -1    0    0    0    0  0.00000000000E+00  0.00000000000E+00  0.50000499739E+01  0.50000500000E+01  0.51100000000E-03 0.  1.
         11   -1    0    0    0    0 -0.00000000000E+00 -0.00000000000E+00 -0.50000499739E+01  0.50000500000E+01  0.51100000000E-03 0. -1.
         50    1    1    2    0    0  0.21756274949E-02 -0.15062610048E-01  0.16382518840E-01  0.50000500000E+01  0.50000000000E+01 0.  0.
         50    1    1    2    0    0 -0.21756274949E-02  0.15062610048E-01 -0.16382518840E-01  0.50000500000E+01  0.50000000000E+01 0.  0.
</event>
<event>
 4    1  0.5060607E-021  0.5000050E+01  0.7818608E-02  0.2136455E+00
        -11   -1    0    0    0    0  0.00000000000E+00  0.00000000000E+00  0.50000499739E+01  0.50000500000E+01  0.51100000000E-03 0. -1.
         11   -1    0    0    0    0 -0.00000000000E+00 -0.00000000000E+00 -0.50000499739E+01  0.50000500000E+01  0.51100000000E-03 0.  1.
         50    1    1    2    0    0 -0.17521993112E-01 -0.13085681247E-01 -0.46633897213E-02  0.50000500000E+01  0.50000000000E+01 0.  0.
         50    1    1    2    0    0  0.17521993112E-01  0.13085681247E-01  0.46633897213E-02  0.50000500000E+01  0.50000000000E+01 0.  1.
</event>
<event>
 4    1  0.5060607E-021  0.5000050E+01  0.7818608E-02  0.2136455E+00
        -11   -1    0    0    0    0  0.00000000000E+00  0.00000000000E+00  0.50000499739E+01  0.50000500000E+01  0.51100000000E-03 0.  1.
         11   -1    0    0    0    0 -0.00000000000E+00 -0.00000000000E+00 -0.50000499739E+01  0.50000500000E+01  0.51100000000E-03 0. -1.
         50    1    1    2    0    0 -0.18956782605E-01 -0.95627027717E-02 -0.70141007234E-02  0.50000500000E+01  0.50000000000E+01 0.  1.
         50    1    1    2    0    0  0.18956782605E-01  0.95627027717E-02  0.70141007234E-02  0.50000500000E+01  0.50000000000E+01 0.  0.
</event>
<event>
 4    1  0.5060607E-021  0.5000050E+01  0.7818608E-02  0.2136455E+00
        -11   -1    0    0    0    0  0.00000000000E+00  0.00000000000E+00  0.50000499739E+01  0.50000500000E+01  0.51100000000E-03 0. -1.
         11   -1    0    0    0    0 -0.00000000000E+00 -0.00000000000E+00 -0.50000499739E+01  0.50000500000E+01  0.51100000000E-03 0.  1.
         50    1    1    2    0    0 -0.68718143839E-02  0.21081002392E-01  0.28934417633E-02  0.50000500000E+01  0.50000000000E+01 0.  0.
         50    1    1    2    0    0  0.68718143839E-02 -0.21081002392E-01 -0.28934417633E-02  0.50000500000E+01  0.50000000000E+01 0.  1.
</event>
<event>
 4    1  0.5060607E-021  0.5000050E+01  0.7818608E-02  0.2136455E+00
        -11   -1    0    0    0    0  0.00000000000E+00  0.00000000000E+00  0.50000499739E+01  0.50000500000E+01  0.51100000000E-03 0. -1.
         11   -1    0    0    0    0 -0.00000000000E+00 -0.00000000000E+00 -0.50000499739E+01  0.50000500000E+01  0.51100000000E-03 0.  1.
         50    1    1    2    0    0  0.19197707362E-01 -0.19001909170E-02 -0.11306626664E-01  0.50000500000E+01  0.50000000000E+01 0.  0.
         50    1    1    2    0    0 -0.19197707362E-01  0.19001909170E-02  0.11306626664E-01  0.50000500000E+01  0.50000000000E+01 0.  0.
</event>
<event>
 4    1  0.5060607E-021  0.5000050E+01  0.7818608E-02  0.2136455E+00
        -11   -1    0    0    0    0  0.00000000000E+00  0.00000000000E+00  0.50000499739E+01  0.50000500000E+01  0.51100000000E-03 0. -1.
         11   -1    0    0    0    0 -0.00000000000E+00 -0.00000000000E+00 -0.50000499739E+01  0.50000500000E+01  0.51100000000E-03 0.  1.
         50    1    1    2    0    0 -0.19948773160E-01 -0.95286411925E-02 -0.33546902116E-02  0.50000500000E+01  0.50000000000E+01 0. -1.
         50    1    1    2    0    0  0.19948773160E-01  0.95286411925E-02  0.33546902116E-02  0.50000500000E+01  0.50000000000E+01 0.  0.
</event>
<event>
 4    1  0.5060607E-021  0.5000050E+01  0.7818608E-02  0.2136455E+00
        -11   -1    0    0    0    0  0.00000000000E+00  0.00000000000E+00  0.50000499739E+01  0.50000500000E+01  0.51100000000E-03 0. -1.
         11   -1    0    0    0    0 -0.00000000000E+00 -0.00000000000E+00 -0.50000499739E+01  0.50000500000E+01  0.51100000000E-03 0.  1.
         50    1    1    2    0    0 -0.16153604145E-01 -0.79156089298E-02  0.13281818716E-01  0.50000500000E+01  0.50000000000E+01 0.  0.
         50    1    1    2    0    0  0.16153604145E-01  0.79156089298E-02 -0.13281818716E-01  0.50000500000E+01  0.50000000000E+01 0.  0.
</event>
<event>
 4    1  0.5060607E-021  0.5000050E+01  0.7818608E-02  0.2136455E+00
        -11   -1    0    0    0    0  0.00000000000E+00  0.00000000000E+00  0.50000499739E+01  0.50000500000E+01  0.51100000000E-03 0. -1.
         11   -1    0    0    0    0 -0.00000000000E+00 -0.00000000000E+00 -0.50000499739E+01  0.50000500000E+01  0.51100000000E-03 0.  1.
         50    1    1    2    0    0  0.18695404445E-01 -0.11978213369E-01 -0.26470279808E-02  0.50000500000E+01  0.50000000000E+01 0. -1.
         50    1    1    2    0    0 -0.18695404445E-01  0.11978213369E-01  0.26470279808E-02  0.50000500000E+01  0.50000000000E+01 0.  1.
</event>
<event>
 4    1  0.5060607E-021  0.5000050E+01  0.7818608E-02  0.2136455E+00
        -11   -1    0    0    0    0  0.00000000000E+00  0.00000000000E+00  0.50000499739E+01  0.50000500000E+01  0.51100000000E-03 0. -1.
         11   -1    0    0    0    0 -0.00000000000E+00 -0.00000000000E+00 -0.50000499739E+01  0.50000500000E+01  0.51100000000E-03 0.  1.
         50    1    1    2    0    0 -0.66666169847E-02 -0.18127453911E-03  0.21343051739E-01  0.50000500000E+01  0.50000000000E+01 0. -1.
         50    1    1    2    0    0  0.66666169847E-02  0.18127453911E-03 -0.21343051739E-01  0.50000500000E+01  0.50000000000E+01 0.  0.
</event>
<event>
 4    1  0.5060607E-021  0.5000050E+01  0.7818608E-02  0.2136455E+00
        -11   -1    0    0    0    0  0.00000000000E+00  0.00000000000E+00  0.50000499739E+01  0.50000500000E+01  0.51100000000E-03 0. -1.
         11   -1    0    0    0    0 -0.00000000000E+00 -0.00000000000E+00 -0.50000499739E+01  0.50000500000E+01  0.51100000000E-03 0.  1.
         50    1    1    2    0    0  0.18530011328E-01 -0.11850312328E-01 -0.40263231249E-02  0.50000500000E+01  0.50000000000E+01 0. -1.
         50    1    1    2    0    0 -0.18530011328E-01  0.11850312328E-01  0.40263231249E-02  0.50000500000E+01  0.50000000000E+01 0.  0.
</event>
<event>
 4    1  0.5060607E-021  0.5000050E+01  0.7818608E-02  0.2136455E+00
        -11   -1    0    0    0    0  0.00000000000E+00  0.00000000000E+00  0.50000499739E+01  0.50000500000E+01  0.51100000000E-03 0. -1.
         11   -1    0    0    0    0 -0.00000000000E+00 -0.00000000000E+00 -0.50000499739E+01  0.50000500000E+01  0.51100000000E-03 0.  1.
         50    1    1    2    0    0  0.11312692359E-01  0.56167252700E-02  0.18452042945E-01  0.50000500000E+01  0.50000000000E+01 0.  0.
         50    1    1    2    0    0 -0.11312692359E-01 -0.56167252700E-02 -0.18452042945E-01  0.50000500000E+01  0.50000000000E+01 0.  1.
</event>
<event>
 4    1  0.5060607E-021  0.5000050E+01  0.7818608E-02  0.2136455E+00
        -11   -1    0    0    0    0  0.00000000000E+00  0.00000000000E+00  0.50000499739E+01  0.50000500000E+01  0.51100000000E-03 0.  1.
         11   -1    0    0    0    0 -0.00000000000E+00 -0.00000000000E+00 -0.50000499739E+01  0.50000500000E+01  0.51100000000E-03 0. -1.
         50    1    1    2    0    0 -0.16852324022E-01  0.14124599077E-01  0.40616961917E-02  0.50000500000E+01  0.50000000000E+01 0.  1.
         50    1    1    2    0    0  0.16852324022E-01 -0.14124599077E-01 -0.40616961917E-02  0.50000500000E+01  0.50000000000E+01 0.  0.
</event>
<event>
 4    1  0.5060607E-021  0.5000050E+01  0.7818608E-02  0.2136455E+00
        -11   -1    0    0    0    0  0.00000000000E+00  0.00000000000E+00  0.50000499739E+01  0.50000500000E+01  0.51100000000E-03 0. -1.
         11   -1    0    0    0    0 -0.00000000000E+00 -0.00000000000E+00 -0.50000499739E+01  0.50000500000E+01  0.51100000000E-03 0.  1.
         50    1    1    2    0    0 -0.88727337960E-02  0.17087095645E-01  0.11371378870E-01  0.50000500000E+01  0.50000000000E+01 0. -1.
         50    1    1    2    0    0  0.88727337960E-02 -0.17087095645E-01 -0.11371378870E-01  0.50000500000E+01  0.50000000000E+01 0.  1.
</event>
<event>
 4    1  0.5060607E-021  0.5000050E+01  0.7818608E-02  0.2136455E+00
        -11   -1    0    0    0    0  0.00000000000E+00  0.00000000000E+00  0.50000499739E+01  0.50000500000E+01  0.51100000000E-03 0.  1.
         11   -1    0    0    0    0 -0.00000000000E+00 -0.00000000000E+00 -0.50000499739E+01  0.50000500000E+01  0.51100000000E-03 0. -1.
         50    1    1    2    0    0 -0.22825501882E-02 -0.23310160802E-03  0.22242709553E-01  0.50000500000E+01  0.50000000000E+01 0.  0.
         50    1    1    2    0    0  0.22825501882E-02  0.23310160802E-03 -0.22242709553E-01  0.50000500000E+01  0.50000000000E+01 0. -1.
</event>
<event>
 4    1  0.5060607E-021  0.5000050E+01  0.7818608E-02  0.2136455E+00
        -11   -1    0    0    0    0  0.00000000000E+00  0.00000000000E+00  0.50000499739E+01  0.50000500000E+01  0.51100000000E-03 0. -1.
         11   -1    0    0    0    0 -0.00000000000E+00 -0.00000000000E+00 -0.50000499739E+01  0.50000500000E+01  0.51100000000E-03 0.  1.
         50    1    1    2    0    0 -0.12165149166E-01 -0.30237262291E-02 -0.18516714759E-01  0.50000500000E+01  0.50000000000E+01 0.  0.
         50    1    1    2    0    0  0.12165149166E-01  0.30237262291E-02  0.18516714759E-01  0.50000500000E+01  0.50000000000E+01 0.  1.
</event>
<event>
 4    1  0.5060607E-021  0.5000050E+01  0.7818608E-02  0.2136455E+00
        -11   -1    0    0    0    0  0.00000000000E+00  0.00000000000E+00  0.50000499739E+01  0.50000500000E+01  0.51100000000E-03 0.  1.
         11   -1    0    0    0    0 -0.00000000000E+00 -0.00000000000E+00 -0.50000499739E+01  0.50000500000E+01  0.51100000000E-03 0. -1.
         50    1    1    2    0    0  0.44565523441E-02  0.21430042244E-01 -0.45710973092E-02  0.50000500000E+01  0.50000000000E+01 0.  0.
         50    1    1    2    0    0 -0.44565523441E-02 -0.21430042244E-01  0.45710973092E-02  0.50000500000E+01  0.50000000000E+01 0. -1.
</event>
<event>
 4    1  0.5060607E-021  0.5000050E+01  0.7818608E-02  0.2136455E+00
        -11   -1    0    0    0    0  0.00000000000E+00  0.00000000000E+00  0.50000499739E+01  0.50000500000E+01  0.51100000000E-03 0. -1.
         11   -1    0    0    0    0 -0.00000000000E+00 -0.00000000000E+00 -0.50000499739E+01  0.50000500000E+01  0.51100000000E-03 0.  1.
         50    1    1    2    0    0 -0.77968373906E-02 -0.31482164057E-02  0.20719569498E-01  0.50000500000E+01  0.50000000000E+01 0.  0.
         50    1    1    2    0    0  0.77968373906E-02  0.31482164057E-02 -0.20719569498E-01  0.50000500000E+01  0.50000000000E+01 0.  1.
</event>
<event>
 4    1  0.5060607E-021  0.5000050E+01  0.7818608E-02  0.2136455E+00
        -11   -1    0    0    0    0  0.00000000000E+00  0.00000000000E+00  0.50000499739E+01  0.50000500000E+01  0.51100000000E-03 0. -1.
         11   -1    0    0    0    0 -0.00000000000E+00 -0.00000000000E+00 -0.50000499739E+01  0.50000500000E+01  0.51100000000E-03 0.  1.
         50    1    1    2    0    0 -0.46476548663E-02  0.19296741070E-01  0.10297455429E-01  0.50000500000E+01  0.50000000000E+01 0. -1.
         50    1    1    2    0    0  0.46476548663E-02 -0.19296741070E-01 -0.10297455429E-01  0.50000500000E+01  0.50000000000E+01 0.  1.
</event>
<event>
 4    1  0.5060607E-021  0.5000050E+01  0.7818608E-02  0.2136455E+00
        -11   -1    0    0    0    0  0.00000000000E+00  0.00000000000E+00  0.50000499739E+01  0.50000500000E+01  0.51100000000E-03 0.  1.
         11   -1    0    0    0    0 -0.00000000000E+00 -0.00000000000E+00 -0.50000499739E+01  0.50000500000E+01  0.51100000000E-03 0. -1.
         50    1    1    2    0    0 -0.15646162487E-01 -0.12728434298E-01  0.96533444840E-02  0.50000500000E+01  0.50000000000E+01 0.  0.
         50    1    1    2    0    0  0.15646162487E-01  0.12728434298E-01 -0.96533444840E-02  0.50000500000E+01  0.50000000000E+01 0.  0.
</event>
<event>
 4    1  0.5060607E-021  0.5000050E+01  0.7818608E-02  0.2136455E+00
        -11   -1    0    0    0    0  0.00000000000E+00  0.00000000000E+00  0.50000499739E+01  0.50000500000E+01  0.51100000000E-03 0.  1.
         11   -1    0    0    0    0 -0.00000000000E+00 -0.00000000000E+00 -0.50000499739E+01  0.50000500000E+01  0.51100000000E-03 0. -1.
         50    1    1    2    0    0 -0.15707895294E-01  0.10769280848E-01  0.11716958455E-01  0.50000500000E+01  0.50000000000E+01 0.  0.
         50    1    1    2    0    0  0.15707895294E-01 -0.10769280848E-01 -0.11716958455E-01  0.50000500000E+01  0.50000000000E+01 0.  1.
</event>
<event>
 4    1  0.5060607E-021  0.5000050E+01  0.7818608E-02  0.2136455E+00
        -11   -1    0    0    0    0  0.00000000000E+00  0.00000000000E+00  0.50000499739E+01  0.50000500000E+01  0.51100000000E-03 0.  1.
         11   -1    0    0    0    0 -0.00000000000E+00 -0.00000000000E+00 -0.50000499739E+01  0.50000500000E+01  0.51100000000E-03 0. -1.
         50    1    1    2    0    0 -0.22007072268E-01  0.38945855915E-02 -0.72351453243E-03  0.50000500000E+01  0.50000000000E+01 0. -1.
         50    1    1    2    0    0  0.22007072268E-01 -0.38945855915E-02  0.72351453243E-03  0.50000500000E+01  0.50000000000E+01 0.  1.
</event>
<event>
 4    1  0.5060607E-021  0.5000050E+01  0.7818608E-02  0.2136455E+00
        -11   -1    0    0    0    0  0.00000000000E+00  0.00000000000E+00  0.50000499739E+01  0.50000500000E+01  0.51100000000E-03 0. -1.
         11   -1    0    0    0    0 -0.00000000000E+00 -0.00000000000E+00 -0.50000499739E+01  0.50000500000E+01  0.51100000000E-03 0.  1.
         50    1    1    2    0    0  0.17672201050E-01 -0.16613683825E-02 -0.13599105307E-01  0.50000500000E+01  0.50000000000E+01 0.  1.
         50    1    1    2    0    0 -0.17672201050E-01  0.16613683825E-02  0.13599105307E-01  0.50000500000E+01  0.50000000000E+01 0. -1.
</event>
<event>
 4    1  0.5060607E-021  0.5000050E+01  0.7818608E-02  0.2136455E+00
        -11   -1    0    0    0    0  0.00000000000E+00  0.00000000000E+00  0.50000499739E+01  0.50000500000E+01  0.51100000000E-03 0.  1.
         11   -1    0    0    0    0 -0.00000000000E+00 -0.00000000000E+00 -0.50000499739E+01  0.50000500000E+01  0.51100000000E-03 0. -1.
         50    1    1    2    0    0 -0.24777201790E-02  0.11351068032E-01  0.19105409109E-01  0.50000500000E+01  0.50000000000E+01 0.  1.
         50    1    1    2    0    0  0.24777201790E-02 -0.11351068032E-01 -0.19105409109E-01  0.50000500000E+01  0.50000000000E+01 0.  0.
</event>
<event>
 4    1  0.5060607E-021  0.5000050E+01  0.7818608E-02  0.2136455E+00
        -11   -1    0    0    0    0  0.00000000000E+00  0.00000000000E+00  0.50000499739E+01  0.50000500000E+01  0.51100000000E-03 0.  1.
         11   -1    0    0    0    0 -0.00000000000E+00 -0.00000000000E+00 -0.50000499739E+01  0.50000500000E+01  0.51100000000E-03 0. -1.
         50    1    1    2    0    0 -0.69531994768E-02 -0.10691651889E-01 -0.18366929436E-01  0.50000500000E+01  0.50000000000E+01 0. -1.
         50    1    1    2    0    0  0.69531994768E-02  0.10691651889E-01  0.18366929436E-01  0.50000500000E+01  0.50000000000E+01 0.  0.
</event>
<event>
 4    1  0.5060607E-021  0.5000050E+01  0.7818608E-02  0.2136455E+00
        -11   -1    0    0    0    0  0.00000000000E+00  0.00000000000E+00  0.50000499739E+01  0.50000500000E+01  0.51100000000E-03 0. -1.
         11   -1    0    0    0    0 -0.00000000000E+00 -0.00000000000E+00 -0.50000499739E+01  0.50000500000E+01  0.51100000000E-03 0.  1.
         50    1    1    2    0    0 -0.12274467354E-01  0.99344647385E-02  0.15831814853E-01  0.50000500000E+01  0.50000000000E+01 0. -1.
         50    1    1    2    0    0  0.12274467354E-01 -0.99344647385E-02 -0.15831814853E-01  0.50000500000E+01  0.50000000000E+01 0.  1.
</event>
<event>
 4    1  0.5060607E-021  0.5000050E+01  0.7818608E-02  0.2136455E+00
        -11   -1    0    0    0    0  0.00000000000E+00  0.00000000000E+00  0.50000499739E+01  0.50000500000E+01  0.51100000000E-03 0.  1.
         11   -1    0    0    0    0 -0.00000000000E+00 -0.00000000000E+00 -0.50000499739E+01  0.50000500000E+01  0.51100000000E-03 0. -1.
         50    1    1    2    0    0  0.12798066756E-01 -0.14866506326E-01 -0.10733078634E-01  0.50000500000E+01  0.50000000000E+01 0.  1.
         50    1    1    2    0    0 -0.12798066756E-01  0.14866506326E-01  0.10733078634E-01  0.50000500000E+01  0.50000000000E+01 0. -1.
</event>
<event>
 4    1  0.5060607E-021  0.5000050E+01  0.7818608E-02  0.2136455E+00
        -11   -1    0    0    0    0  0.00000000000E+00  0.00000000000E+00  0.50000499739E+01  0.50000500000E+01  0.51100000000E-03 0.  1.
         11   -1    0    0    0    0 -0.00000000000E+00 -0.00000000000E+00 -0.50000499739E+01  0.50000500000E+01  0.51100000000E-03 0. -1.
         50    1    1    2    0    0 -0.15746506156E-01  0.88194006837E-02 -0.13201068723E-01  0.50000500000E+01  0.50000000000E+01 0.  0.
         50    1    1    2    0    0  0.15746506156E-01 -0.88194006837E-02  0.13201068723E-01  0.50000500000E+01  0.50000000000E+01 0.  0.
</event>
<event>
 4    1  0.5060607E-021  0.5000050E+01  0.7818608E-02  0.2136455E+00
        -11   -1    0    0    0    0  0.00000000000E+00  0.00000000000E+00  0.50000499739E+01  0.50000500000E+01  0.51100000000E-03 0. -1.
         11   -1    0    0    0    0 -0.00000000000E+00 -0.00000000000E+00 -0.50000499739E+01  0.50000500000E+01  0.51100000000E-03 0.  1.
         50    1    1    2    0    0 -0.82432427876E-02 -0.37967102070E-02  0.20436155214E-01  0.50000500000E+01  0.50000000000E+01 0. -1.
         50    1    1    2    0    0  0.82432427876E-02  0.37967102070E-02 -0.20436155214E-01  0.50000500000E+01  0.50000000000E+01 0.  0.
</event>
<event>
 4    1  0.5060607E-021  0.5000050E+01  0.7818608E-02  0.2136455E+00
        -11   -1    0    0    0    0  0.00000000000E+00  0.00000000000E+00  0.50000499739E+01  0.50000500000E+01  0.51100000000E-03 0. -1.
         11   -1    0    0    0    0 -0.00000000000E+00 -0.00000000000E+00 -0.50000499739E+01  0.50000500000E+01  0.51100000000E-03 0.  1.
         50    1    1    2    0    0  0.20728934385E-01  0.60906494778E-02 -0.57634857695E-02  0.50000500000E+01  0.50000000000E+01 0.  0.
         50    1    1    2    0    0 -0.20728934385E-01 -0.60906494778E-02  0.57634857695E-02  0.50000500000E+01  0.50000000000E+01 0.  1.
</event>
<event>
 4    1  0.5060607E-021  0.5000050E+01  0.7818608E-02  0.2136455E+00
        -11   -1    0    0    0    0  0.00000000000E+00  0.00000000000E+00  0.50000499739E+01  0.50000500000E+01  0.51100000000E-03 0. -1.
         11   -1    0    0    0    0 -0.00000000000E+00 -0.00000000000E+00 -0.50000499739E+01  0.50000500000E+01  0.51100000000E-03 0.  1.
         50    1    1    2    0    0  0.15985664645E-01 -0.60763321339E-02 -0.14406221353E-01  0.50000500000E+01  0.50000000000E+01 0.  1.
         50    1    1    2    0    0 -0.15985664645E-01  0.60763321339E-02  0.14406221353E-01  0.50000500000E+01  0.50000000000E+01 0.  1.
</event>
<event>
 4    1  0.5060607E-021  0.5000050E+01  0.7818608E-02  0.2136455E+00
        -11   -1    0    0    0    0  0.00000000000E+00  0.00000000000E+00  0.50000499739E+01  0.50000500000E+01  0.51100000000E-03 0. -1.
         11   -1    0    0    0    0 -0.00000000000E+00 -0.00000000000E+00 -0.50000499739E+01  0.50000500000E+01  0.51100000000E-03 0.  1.
         50    1    1    2    0    0  0.75061749254E-02 -0.20971729453E-01 -0.19612245518E-02  0.50000500000E+01  0.50000000000E+01 0.  0.
         50    1    1    2    0    0 -0.75061749254E-02  0.20971729453E-01  0.19612245518E-02  0.50000500000E+01  0.50000000000E+01 0.  1.
</event>
<event>
 4    1  0.5060607E-021  0.5000050E+01  0.7818608E-02  0.2136455E+00
        -11   -1    0    0    0    0  0.00000000000E+00  0.00000000000E+00  0.50000499739E+01  0.50000500000E+01  0.51100000000E-03 0.  1.
         11   -1    0    0    0    0 -0.00000000000E+00 -0.00000000000E+00 -0.50000499739E+01  0.50000500000E+01  0.51100000000E-03 0. -1.
         50    1    1    2    0    0 -0.11744454047E-01 -0.15813125114E-01  0.10583731538E-01  0.50000500000E+01  0.50000000000E+01 0.  1.
         50    1    1    2    0    0  0.11744454047E-01  0.15813125114E-01 -0.10583731538E-01  0.50000500000E+01  0.50000000000E+01 0. -1.
</event>
<event>
 4    1  0.5060607E-021  0.5000050E+01  0.7818608E-02  0.2136455E+00
        -11   -1    0    0    0    0  0.00000000000E+00  0.00000000000E+00  0.50000499739E+01  0.50000500000E+01  0.51100000000E-03 0.  1.
         11   -1    0    0    0    0 -0.00000000000E+00 -0.00000000000E+00 -0.50000499739E+01  0.50000500000E+01  0.51100000000E-03 0. -1.
         50    1    1    2    0    0  0.20493861299E-01  0.83011166631E-02  0.33310075383E-02  0.50000500000E+01  0.50000000000E+01 0.  1.
         50    1    1    2    0    0 -0.20493861299E-01 -0.83011166631E-02 -0.33310075383E-02  0.50000500000E+01  0.50000000000E+01 0.  0.
</event>
<event>
 4    1  0.5060607E-021  0.5000050E+01  0.7818608E-02  0.2136455E+00
        -11   -1    0    0    0    0  0.00000000000E+00  0.00000000000E+00  0.50000499739E+01  0.50000500000E+01  0.51100000000E-03 0.  1.
         11   -1    0    0    0    0 -0.00000000000E+00 -0.00000000000E+00 -0.50000499739E+01  0.50000500000E+01  0.51100000000E-03 0. -1.
         50    1    1    2    0    0 -0.17316830810E-01  0.17675169037E-02  0.14035873849E-01  0.50000500000E+01  0.50000000000E+01 0.  0.
         50    1    1    2    0    0  0.17316830810E-01 -0.17675169037E-02 -0.14035873849E-01  0.50000500000E+01  0.50000000000E+01 0.  0.
</event>
<event>
 4    1  0.5060607E-021  0.5000050E+01  0.7818608E-02  0.2136455E+00
        -11   -1    0    0    0    0  0.00000000000E+00  0.00000000000E+00  0.50000499739E+01  0.50000500000E+01  0.51100000000E-03 0. -1.
         11   -1    0    0    0    0 -0.00000000000E+00 -0.00000000000E+00 -0.50000499739E+01  0.50000500000E+01  0.51100000000E-03 0.  1.
         50    1    1    2    0    0  0.28728348335E-03 -0.21537683241E-01  0.60040127242E-02  0.50000500000E+01  0.50000000000E+01 0.  0.
         50    1    1    2    0    0 -0.28728348335E-03  0.21537683241E-01 -0.60040127242E-02  0.50000500000E+01  0.50000000000E+01 0. -1.
</event>
<event>
 4    1  0.5060607E-021  0.5000050E+01  0.7818608E-02  0.2136455E+00
        -11   -1    0    0    0    0  0.00000000000E+00  0.00000000000E+00  0.50000499739E+01  0.50000500000E+01  0.51100000000E-03 0.  1.
         11   -1    0    0    0    0 -0.00000000000E+00 -0.00000000000E+00 -0.50000499739E+01  0.50000500000E+01  0.51100000000E-03 0. -1.
         50    1    1    2    0    0  0.80796080334E-02 -0.77135729674E-02  0.19370679547E-01  0.50000500000E+01  0.50000000000E+01 0.  1.
         50    1    1    2    0    0 -0.80796080334E-02  0.77135729674E-02 -0.19370679547E-01  0.50000500000E+01  0.50000000000E+01 0. -1.
</event>
<event>
 4    1  0.5060607E-021  0.5000050E+01  0.7818608E-02  0.2136455E+00
        -11   -1    0    0    0    0  0.00000000000E+00  0.00000000000E+00  0.50000499739E+01  0.50000500000E+01  0.51100000000E-03 0. -1.
         11   -1    0    0    0    0 -0.00000000000E+00 -0.00000000000E+00 -0.50000499739E+01  0.50000500000E+01  0.51100000000E-03 0.  1.
         50    1    1    2    0    0 -0.17305281141E-01  0.12818579949E-01  0.60177863645E-02  0.50000500000E+01  0.50000000000E+01 0. -1.
         50    1    1    2    0    0  0.17305281141E-01 -0.12818579949E-01 -0.60177863644E-02  0.50000500000E+01  0.50000000000E+01 0.  0.
</event>
<event>
 4    1  0.5060607E-021  0.5000050E+01  0.7818608E-02  0.2136455E+00
        -11   -1    0    0    0    0  0.00000000000E+00  0.00000000000E+00  0.50000499739E+01  0.50000500000E+01  0.51100000000E-03 0.  1.
         11   -1    0    0    0    0 -0.00000000000E+00 -0.00000000000E+00 -0.50000499739E+01  0.50000500000E+01  0.51100000000E-03 0. -1.
         50    1    1    2    0    0  0.16516301397E-01  0.54427448418E-02  0.14056700065E-01  0.50000500000E+01  0.50000000000E+01 0. -1.
         50    1    1    2    0    0 -0.16516301397E-01 -0.54427448418E-02 -0.14056700065E-01  0.50000500000E+01  0.50000000000E+01 0.  0.
</event>
<event>
 4    1  0.5060607E-021  0.5000050E+01  0.7818608E-02  0.2136455E+00
        -11   -1    0    0    0    0  0.00000000000E+00  0.00000000000E+00  0.50000499739E+01  0.50000500000E+01  0.51100000000E-03 0.  1.
         11   -1    0    0    0    0 -0.00000000000E+00 -0.00000000000E+00 -0.50000499739E+01  0.50000500000E+01  0.51100000000E-03 0. -1.
         50    1    1    2    0    0  0.19887928095E-01  0.10137643811E-01 -0.13042216258E-02  0.50000500000E+01  0.50000000000E+01 0.  1.
         50    1    1    2    0    0 -0.19887928095E-01 -0.10137643811E-01  0.13042216258E-02  0.50000500000E+01  0.50000000000E+01 0.  0.
</event>
<event>
 4    1  0.5060607E-021  0.5000050E+01  0.7818608E-02  0.2136455E+00
        -11   -1    0    0    0    0  0.00000000000E+00  0.00000000000E+00  0.50000499739E+01  0.50000500000E+01  0.51100000000E-03 0.  1.
         11   -1    0    0    0    0 -0.00000000000E+00 -0.00000000000E+00 -0.50000499739E+01  0.50000500000E+01  0.51100000000E-03 0. -1.
         50    1    1    2    0    0 -0.17896908518E-01  0.12699320834E-01  0.42930660217E-02  0.50000500000E+01  0.50000000000E+01 0.  0.
         50    1    1    2    0    0  0.17896908518E-01 -0.12699320834E-01 -0.42930660217E-02  0.50000500000E+01  0.50000000000E+01 0.  1.
</event>
<event>
 4    1  0.5060607E-021  0.5000050E+01  0.7818608E-02  0.2136455E+00
        -11   -1    0    0    0    0  0.00000000000E+00  0.00000000000E+00  0.50000499739E+01  0.50000500000E+01  0.51100000000E-03 0.  1.
         11   -1    0    0    0    0 -0.00000000000E+00 -0.00000000000E+00 -0.50000499739E+01  0.50000500000E+01  0.51100000000E-03 0. -1.
         50    1    1    2    0    0  0.14537008976E-01  0.15139984214E-01 -0.77109498803E-02  0.50000500000E+01  0.50000000000E+01 0. -1.
         50    1    1    2    0    0 -0.14537008976E-01 -0.15139984214E-01  0.77109498803E-02  0.50000500000E+01  0.50000000000E+01 0.  1.
</event>
<event>
 4    1  0.5060607E-021  0.5000050E+01  0.7818608E-02  0.2136455E+00
        -11   -1    0    0    0    0  0.00000000000E+00  0.00000000000E+00  0.50000499739E+01  0.50000500000E+01  0.51100000000E-03 0.  1.
         11   -1    0    0    0    0 -0.00000000000E+00 -0.00000000000E+00 -0.50000499739E+01  0.50000500000E+01  0.51100000000E-03 0. -1.
         50    1    1    2    0    0  0.19376263772E-01 -0.13308294400E-02 -0.11081145935E-01  0.50000500000E+01  0.50000000000E+01 0.  0.
         50    1    1    2    0    0 -0.19376263772E-01  0.13308294400E-02  0.11081145935E-01  0.50000500000E+01  0.50000000000E+01 0.  0.
</event>
<event>
 4    1  0.5060607E-021  0.5000050E+01  0.7818608E-02  0.2136455E+00
        -11   -1    0    0    0    0  0.00000000000E+00  0.00000000000E+00  0.50000499739E+01  0.50000500000E+01  0.51100000000E-03 0. -1.
         11   -1    0    0    0    0 -0.00000000000E+00 -0.00000000000E+00 -0.50000499739E+01  0.50000500000E+01  0.51100000000E-03 0.  1.
         50    1    1    2    0    0 -0.15860678870E-01  0.14703938175E-01 -0.56776375293E-02  0.50000500000E+01  0.50000000000E+01 0. -1.
         50    1    1    2    0    0  0.15860678870E-01 -0.14703938175E-01  0.56776375293E-02  0.50000500000E+01  0.50000000000E+01 0.  0.
</event>
<event>
 4    1  0.5060607E-021  0.5000050E+01  0.7818608E-02  0.2136455E+00
        -11   -1    0    0    0    0  0.00000000000E+00  0.00000000000E+00  0.50000499739E+01  0.50000500000E+01  0.51100000000E-03 0. -1.
         11   -1    0    0    0    0 -0.00000000000E+00 -0.00000000000E+00 -0.50000499739E+01  0.50000500000E+01  0.51100000000E-03 0.  1.
         50    1    1    2    0    0  0.66049648947E-02 -0.20777083268E-01 -0.49688781033E-02  0.50000500000E+01  0.50000000000E+01 0. -1.
         50    1    1    2    0    0 -0.66049648947E-02  0.20777083268E-01  0.49688781033E-02  0.50000500000E+01  0.50000000000E+01 0.  1.
</event>
<event>
 4    1  0.5060607E-021  0.5000050E+01  0.7818608E-02  0.2136455E+00
        -11   -1    0    0    0    0  0.00000000000E+00  0.00000000000E+00  0.50000499739E+01  0.50000500000E+01  0.51100000000E-03 0. -1.
         11   -1    0    0    0    0 -0.00000000000E+00 -0.00000000000E+00 -0.50000499739E+01  0.50000500000E+01  0.51100000000E-03 0.  1.
         50    1    1    2    0    0  0.11528788243E-01 -0.17334893384E-01 -0.81603316721E-02  0.50000500000E+01  0.50000000000E+01 0.  1.
         50    1    1    2    0    0 -0.11528788243E-01  0.17334893384E-01  0.81603316721E-02  0.50000500000E+01  0.50000000000E+01 0. -1.
</event>
<event>
 4    1  0.5060607E-021  0.5000050E+01  0.7818608E-02  0.2136455E+00
        -11   -1    0    0    0    0  0.00000000000E+00  0.00000000000E+00  0.50000499739E+01  0.50000500000E+01  0.51100000000E-03 0.  1.
         11   -1    0    0    0    0 -0.00000000000E+00 -0.00000000000E+00 -0.50000499739E+01  0.50000500000E+01  0.51100000000E-03 0. -1.
         50    1    1    2    0    0  0.34103873718E-02  0.21274384611E-01  0.59809963539E-02  0.50000500000E+01  0.50000000000E+01 0.  1.
         50    1    1    2    0    0 -0.34103873718E-02 -0.21274384611E-01 -0.59809963539E-02  0.50000500000E+01  0.50000000000E+01 0. -1.
</event>
<event>
 4    1  0.5060607E-021  0.5000050E+01  0.7818608E-02  0.2136455E+00
        -11   -1    0    0    0    0  0.00000000000E+00  0.00000000000E+00  0.50000499739E+01  0.50000500000E+01  0.51100000000E-03 0. -1.
         11   -1    0    0    0    0 -0.00000000000E+00 -0.00000000000E+00 -0.50000499739E+01  0.50000500000E+01  0.51100000000E-03 0.  1.
         50    1    1    2    0    0 -0.20803056250E-01 -0.56786797439E-02  0.59150610337E-02  0.50000500000E+01  0.50000000000E+01 0. -1.
         50    1    1    2    0    0  0.20803056250E-01  0.56786797439E-02 -0.59150610337E-02  0.50000500000E+01  0.50000000000E+01 0.  1.
</event>
<event>
 4    1  0.5060607E-021  0.5000050E+01  0.7818608E-02  0.2136455E+00
        -11   -1    0    0    0    0  0.00000000000E+00  0.00000000000E+00  0.50000499739E+01  0.50000500000E+01  0.51100000000E-03 0. -1.
         11   -1    0    0    0    0 -0.00000000000E+00 -0.00000000000E+00 -0.50000499739E+01  0.50000500000E+01  0.51100000000E-03 0.  1.
         50    1    1    2    0    0 -0.79431604278E-03  0.11661054398E-01 -0.19062826977E-01  0.50000500000E+01  0.50000000000E+01 0.  1.
         50    1    1    2    0    0  0.79431604278E-03 -0.11661054398E-01  0.19062826977E-01  0.50000500000E+01  0.50000000000E+01 0. -1.
</event>
<event>
 4    1  0.5060607E-021  0.5000050E+01  0.7818608E-02  0.2136455E+00
        -11   -1    0    0    0    0  0.00000000000E+00  0.00000000000E+00  0.50000499739E+01  0.50000500000E+01  0.51100000000E-03 0.  1.
         11   -1    0    0    0    0 -0.00000000000E+00 -0.00000000000E+00 -0.50000499739E+01  0.50000500000E+01  0.51100000000E-03 0. -1.
         50    1    1    2    0    0 -0.14081448447E-01 -0.57807671225E-02  0.16379805894E-01  0.50000500000E+01  0.50000000000E+01 0.  0.
         50    1    1    2    0    0  0.14081448447E-01  0.57807671225E-02 -0.16379805894E-01  0.50000500000E+01  0.50000000000E+01 0.  1.
</event>
<event>
 4    1  0.5060607E-021  0.5000050E+01  0.7818608E-02  0.2136455E+00
        -11   -1    0    0    0    0  0.00000000000E+00  0.00000000000E+00  0.50000499739E+01  0.50000500000E+01  0.51100000000E-03 0.  1.
         11   -1    0    0    0    0 -0.00000000000E+00 -0.00000000000E+00 -0.50000499739E+01  0.50000500000E+01  0.51100000000E-03 0. -1.
         50    1    1    2    0    0 -0.11907969083E-01 -0.11141330041E-01 -0.15299461991E-01  0.50000500000E+01  0.50000000000E+01 0. -1.
         50    1    1    2    0    0  0.11907969083E-01  0.11141330041E-01  0.15299461991E-01  0.50000500000E+01  0.50000000000E+01 0.  1.
</event>
<event>
 4    1  0.5060607E-021  0.5000050E+01  0.7818608E-02  0.2136455E+00
        -11   -1    0    0    0    0  0.00000000000E+00  0.00000000000E+00  0.50000499739E+01  0.50000500000E+01  0.51100000000E-03 0. -1.
         11   -1    0    0    0    0 -0.00000000000E+00 -0.00000000000E+00 -0.50000499739E+01  0.50000500000E+01  0.51100000000E-03 0.  1.
         50    1    1    2    0    0 -0.17359793481E-01  0.12413937342E-01 -0.66733971843E-02  0.50000500000E+01  0.50000000000E+01 0.  0.
         50    1    1    2    0    0  0.17359793481E-01 -0.12413937342E-01  0.66733971843E-02  0.50000500000E+01  0.50000000000E+01 0.  0.
</event>
<event>
 4    1  0.5060607E-021  0.5000050E+01  0.7818608E-02  0.2136455E+00
        -11   -1    0    0    0    0  0.00000000000E+00  0.00000000000E+00  0.50000499739E+01  0.50000500000E+01  0.51100000000E-03 0.  1.
         11   -1    0    0    0    0 -0.00000000000E+00 -0.00000000000E+00 -0.50000499739E+01  0.50000500000E+01  0.51100000000E-03 0. -1.
         50    1    1    2    0    0 -0.34646257350E-02  0.10743831338E-01  0.19302045402E-01  0.50000500000E+01  0.50000000000E+01 0.  0.
         50    1    1    2    0    0  0.34646257350E-02 -0.10743831338E-01 -0.19302045402E-01  0.50000500000E+01  0.50000000000E+01 0. -1.
</event>
<event>
 4    1  0.5060607E-021  0.5000050E+01  0.7818608E-02  0.2136455E+00
        -11   -1    0    0    0    0  0.00000000000E+00  0.00000000000E+00  0.50000499739E+01  0.50000500000E+01  0.51100000000E-03 0. -1.
         11   -1    0    0    0    0 -0.00000000000E+00 -0.00000000000E+00 -0.50000499739E+01  0.50000500000E+01  0.51100000000E-03 0.  1.
         50    1    1    2    0    0 -0.24680919071E-02 -0.18732115998E-01 -0.11959048982E-01  0.50000500000E+01  0.50000000000E+01 0. -1.
         50    1    1    2    0    0  0.24680919071E-02  0.18732115998E-01  0.11959048982E-01  0.50000500000E+01  0.50000000000E+01 0.  0.
</event>
<event>
 4    1  0.5060607E-021  0.5000050E+01  0.7818608E-02  0.2136455E+00
        -11   -1    0    0    0    0  0.00000000000E+00  0.00000000000E+00  0.50000499739E+01  0.50000500000E+01  0.51100000000E-03 0. -1.
         11   -1    0    0    0    0 -0.00000000000E+00 -0.00000000000E+00 -0.50000499739E+01  0.50000500000E+01  0.51100000000E-03 0.  1.
         50    1    1    2    0    0 -0.88123503789E-02  0.20481738696E-01 -0.16862267877E-02  0.50000500000E+01  0.50000000000E+01 0. -1.
         50    1    1    2    0    0  0.88123503789E-02 -0.20481738696E-01  0.16862267877E-02  0.50000500000E+01  0.50000000000E+01 0.  1.
</event>
<event>
 4    1  0.5060607E-021  0.5000050E+01  0.7818608E-02  0.2136455E+00
        -11   -1    0    0    0    0  0.00000000000E+00  0.00000000000E+00  0.50000499739E+01  0.50000500000E+01  0.51100000000E-03 0. -1.
         11   -1    0    0    0    0 -0.00000000000E+00 -0.00000000000E+00 -0.50000499739E+01  0.50000500000E+01  0.51100000000E-03 0.  1.
         50    1    1    2    0    0 -0.13632739579E-01 -0.17681947511E-01  0.12245994412E-02  0.50000500000E+01  0.50000000000E+01 0. -1.
         50    1    1    2    0    0  0.13632739579E-01  0.17681947511E-01 -0.12245994412E-02  0.50000500000E+01  0.50000000000E+01 0.  1.
</event>
<event>
 4    1  0.5060607E-021  0.5000050E+01  0.7818608E-02  0.2136455E+00
        -11   -1    0    0    0    0  0.00000000000E+00  0.00000000000E+00  0.50000499739E+01  0.50000500000E+01  0.51100000000E-03 0.  1.
         11   -1    0    0    0    0 -0.00000000000E+00 -0.00000000000E+00 -0.50000499739E+01  0.50000500000E+01  0.51100000000E-03 0. -1.
         50    1    1    2    0    0  0.87940029625E-02  0.82640327602E-02 -0.18824818045E-01  0.50000500000E+01  0.50000000000E+01 0.  0.
         50    1    1    2    0    0 -0.87940029625E-02 -0.82640327602E-02  0.18824818045E-01  0.50000500000E+01  0.50000000000E+01 0.  0.
</event>
<event>
 4    1  0.5060607E-021  0.5000050E+01  0.7818608E-02  0.2136455E+00
        -11   -1    0    0    0    0  0.00000000000E+00  0.00000000000E+00  0.50000499739E+01  0.50000500000E+01  0.51100000000E-03 0.  1.
         11   -1    0    0    0    0 -0.00000000000E+00 -0.00000000000E+00 -0.50000499739E+01  0.50000500000E+01  0.51100000000E-03 0. -1.
         50    1    1    2    0    0 -0.10161159313E-01  0.13819694009E-02 -0.19870669390E-01  0.50000500000E+01  0.50000000000E+01 0.  0.
         50    1    1    2    0    0  0.10161159313E-01 -0.13819694009E-02  0.19870669390E-01  0.50000500000E+01  0.50000000000E+01 0.  0.
</event>
<event>
 4    1  0.5060607E-021  0.5000050E+01  0.7818608E-02  0.2136455E+00
        -11   -1    0    0    0    0  0.00000000000E+00  0.00000000000E+00  0.50000499739E+01  0.50000500000E+01  0.51100000000E-03 0. -1.
         11   -1    0    0    0    0 -0.00000000000E+00 -0.00000000000E+00 -0.50000499739E+01  0.50000500000E+01  0.51100000000E-03 0.  1.
         50    1    1    2    0    0  0.57382549131E-02  0.81175616378E-02  0.20029481361E-01  0.50000500000E+01  0.50000000000E+01 0.  0.
         50    1    1    2    0    0 -0.57382549131E-02 -0.81175616378E-02 -0.20029481361E-01  0.50000500000E+01  0.50000000000E+01 0.  0.
</event>
<event>
 4    1  0.5060607E-021  0.5000050E+01  0.7818608E-02  0.2136455E+00
        -11   -1    0    0    0    0  0.00000000000E+00  0.00000000000E+00  0.50000499739E+01  0.50000500000E+01  0.51100000000E-03 0.  1.
         11   -1    0    0    0    0 -0.00000000000E+00 -0.00000000000E+00 -0.50000499739E+01  0.50000500000E+01  0.51100000000E-03 0. -1.
         50    1    1    2    0    0  0.10418541630E-01 -0.14677080624E-01 -0.13267998895E-01  0.50000500000E+01  0.50000000000E+01 0.  1.
         50    1    1    2    0    0 -0.10418541630E-01  0.14677080624E-01  0.13267998895E-01  0.50000500000E+01  0.50000000000E+01 0. -1.
</event>
<event>
 4    1  0.5060607E-021  0.5000050E+01  0.7818608E-02  0.2136455E+00
        -11   -1    0    0    0    0  0.00000000000E+00  0.00000000000E+00  0.50000499739E+01  0.50000500000E+01  0.51100000000E-03 0.  1.
         11   -1    0    0    0    0 -0.00000000000E+00 -0.00000000000E+00 -0.50000499739E+01  0.50000500000E+01  0.51100000000E-03 0. -1.
         50    1    1    2    0    0  0.31774493339E-02  0.10009825779E-01  0.19741066425E-01  0.50000500000E+01  0.50000000000E+01 0.  1.
         50    1    1    2    0    0 -0.31774493339E-02 -0.10009825779E-01 -0.19741066425E-01  0.50000500000E+01  0.50000000000E+01 0.  0.
</event>
<event>
 4    1  0.5060607E-021  0.5000050E+01  0.7818608E-02  0.2136455E+00
        -11   -1    0    0    0    0  0.00000000000E+00  0.00000000000E+00  0.50000499739E+01  0.50000500000E+01  0.51100000000E-03 0. -1.
         11   -1    0    0    0    0 -0.00000000000E+00 -0.00000000000E+00 -0.50000499739E+01  0.50000500000E+01  0.51100000000E-03 0.  1.
         50    1    1    2    0    0 -0.74515241071E-02  0.13329595649E-01 -0.16333988132E-01  0.50000500000E+01  0.50000000000E+01 0.  1.
         50    1    1    2    0    0  0.74515241071E-02 -0.13329595649E-01  0.16333988132E-01  0.50000500000E+01  0.50000000000E+01 0. -1.
</event>
<event>
 4    1  0.5060607E-021  0.5000050E+01  0.7818608E-02  0.2136455E+00
        -11   -1    0    0    0    0  0.00000000000E+00  0.00000000000E+00  0.50000499739E+01  0.50000500000E+01  0.51100000000E-03 0.  1.
         11   -1    0    0    0    0 -0.00000000000E+00 -0.00000000000E+00 -0.50000499739E+01  0.50000500000E+01  0.51100000000E-03 0. -1.
         50    1    1    2    0    0  0.16865484434E-01  0.14588273145E-01  0.16553614314E-02  0.50000500000E+01  0.50000000000E+01 0.  0.
         50    1    1    2    0    0 -0.16865484434E-01 -0.14588273145E-01 -0.16553614314E-02  0.50000500000E+01  0.50000000000E+01 0.  1.
</event>
<event>
 4    1  0.5060607E-021  0.5000050E+01  0.7818608E-02  0.2136455E+00
        -11   -1    0    0    0    0  0.00000000000E+00  0.00000000000E+00  0.50000499739E+01  0.50000500000E+01  0.51100000000E-03 0.  1.
         11   -1    0    0    0    0 -0.00000000000E+00 -0.00000000000E+00 -0.50000499739E+01  0.50000500000E+01  0.51100000000E-03 0. -1.
         50    1    1    2    0    0 -0.20158478228E-01  0.94222138072E-02 -0.22045730865E-02  0.50000500000E+01  0.50000000000E+01 0. -1.
         50    1    1    2    0    0  0.20158478228E-01 -0.94222138072E-02  0.22045730865E-02  0.50000500000E+01  0.50000000000E+01 0.  1.
</event>
<event>
 4    1  0.5060607E-021  0.5000050E+01  0.7818608E-02  0.2136455E+00
        -11   -1    0    0    0    0  0.00000000000E+00  0.00000000000E+00  0.50000499739E+01  0.50000500000E+01  0.51100000000E-03 0.  1.
         11   -1    0    0    0    0 -0.00000000000E+00 -0.00000000000E+00 -0.50000499739E+01  0.50000500000E+01  0.51100000000E-03 0. -1.
         50    1    1    2    0    0 -0.16021840213E-01  0.59969586696E-03  0.15586644958E-01  0.50000500000E+01  0.50000000000E+01 0.  1.
         50    1    1    2    0    0  0.16021840213E-01 -0.59969586696E-03 -0.15586644958E-01  0.50000500000E+01  0.50000000000E+01 0.  0.
</event>
<event>
 4    1  0.5060607E-021  0.5000050E+01  0.7818608E-02  0.2136455E+00
        -11   -1    0    0    0    0  0.00000000000E+00  0.00000000000E+00  0.50000499739E+01  0.50000500000E+01  0.51100000000E-03 0.  1.
         11   -1    0    0    0    0 -0.00000000000E+00 -0.00000000000E+00 -0.50000499739E+01  0.50000500000E+01  0.51100000000E-03 0. -1.
         50    1    1    2    0    0 -0.17739980770E-01 -0.12279998810E-01 -0.58734326859E-02  0.50000500000E+01  0.50000000000E+01 0. -1.
         50    1    1    2    0    0  0.17739980770E-01  0.12279998810E-01  0.58734326859E-02  0.50000500000E+01  0.50000000000E+01 0.  1.
</event>
<event>
 4    1  0.5060607E-021  0.5000050E+01  0.7818608E-02  0.2136455E+00
        -11   -1    0    0    0    0  0.00000000000E+00  0.00000000000E+00  0.50000499739E+01  0.50000500000E+01  0.51100000000E-03 0. -1.
         11   -1    0    0    0    0 -0.00000000000E+00 -0.00000000000E+00 -0.50000499739E+01  0.50000500000E+01  0.51100000000E-03 0.  1.
         50    1    1    2    0    0 -0.10554945484E-02 -0.84431705083E-02  0.20678522748E-01  0.50000500000E+01  0.50000000000E+01 0.  0.
         50    1    1    2    0    0  0.10554945484E-02  0.84431705083E-02 -0.20678522748E-01  0.50000500000E+01  0.50000000000E+01 0.  1.
</event>
<event>
 4    1  0.5060607E-021  0.5000050E+01  0.7818608E-02  0.2136455E+00
        -11   -1    0    0    0    0  0.00000000000E+00  0.00000000000E+00  0.50000499739E+01  0.50000500000E+01  0.51100000000E-03 0.  1.
         11   -1    0    0    0    0 -0.00000000000E+00 -0.00000000000E+00 -0.50000499739E+01  0.50000500000E+01  0.51100000000E-03 0. -1.
         50    1    1    2    0    0 -0.68154827960E-02 -0.19556814432E-01  0.84310558956E-02  0.50000500000E+01  0.50000000000E+01 0.  1.
         50    1    1    2    0    0  0.68154827960E-02  0.19556814432E-01 -0.84310558956E-02  0.50000500000E+01  0.50000000000E+01 0. -1.
</event>
<event>
 4    1  0.5060607E-021  0.5000050E+01  0.7818608E-02  0.2136455E+00
        -11   -1    0    0    0    0  0.00000000000E+00  0.00000000000E+00  0.50000499739E+01  0.50000500000E+01  0.51100000000E-03 0. -1.
         11   -1    0    0    0    0 -0.00000000000E+00 -0.00000000000E+00 -0.50000499739E+01  0.50000500000E+01  0.51100000000E-03 0.  1.
         50    1    1    2    0    0  0.67726017934E-02  0.13764734531E-01 -0.16268572409E-01  0.50000500000E+01  0.50000000000E+01 0.  0.
         50    1    1    2    0    0 -0.67726017934E-02 -0.13764734531E-01  0.16268572409E-01  0.50000500000E+01  0.50000000000E+01 0.  1.
</event>
<event>
 4    1  0.5060607E-021  0.5000050E+01  0.7818608E-02  0.2136455E+00
        -11   -1    0    0    0    0  0.00000000000E+00  0.00000000000E+00  0.50000499739E+01  0.50000500000E+01  0.51100000000E-03 0.  1.
         11   -1    0    0    0    0 -0.00000000000E+00 -0.00000000000E+00 -0.50000499739E+01  0.50000500000E+01  0.51100000000E-03 0. -1.
         50    1    1    2    0    0 -0.61430286533E-02 -0.20445206127E-01  0.66527622379E-02  0.50000500000E+01  0.50000000000E+01 0.  0.
         50    1    1    2    0    0  0.61430286533E-02  0.20445206127E-01 -0.66527622379E-02  0.50000500000E+01  0.50000000000E+01 0.  1.
</event>
<event>
 4    1  0.5060607E-021  0.5000050E+01  0.7818608E-02  0.2136455E+00
        -11   -1    0    0    0    0  0.00000000000E+00  0.00000000000E+00  0.50000499739E+01  0.50000500000E+01  0.51100000000E-03 0. -1.
         11   -1    0    0    0    0 -0.00000000000E+00 -0.00000000000E+00 -0.50000499739E+01  0.50000500000E+01  0.51100000000E-03 0.  1.
         50    1    1    2    0    0  0.61869724434E-03 -0.22327891101E-01  0.10416298273E-02  0.50000500000E+01  0.50000000000E+01 0. -1.
         50    1    1    2    0    0 -0.61869724434E-03  0.22327891101E-01 -0.10416298273E-02  0.50000500000E+01  0.50000000000E+01 0.  1.
</event>
<event>
 4    1  0.5060607E-021  0.5000050E+01  0.7818608E-02  0.2136455E+00
        -11   -1    0    0    0    0  0.00000000000E+00  0.00000000000E+00  0.50000499739E+01  0.50000500000E+01  0.51100000000E-03 0.  1.
         11   -1    0    0    0    0 -0.00000000000E+00 -0.00000000000E+00 -0.50000499739E+01  0.50000500000E+01  0.51100000000E-03 0. -1.
         50    1    1    2    0    0  0.13343931831E-01 -0.11095982204E-01 -0.14100395818E-01  0.50000500000E+01  0.50000000000E+01 0.  0.
         50    1    1    2    0    0 -0.13343931831E-01  0.11095982204E-01  0.14100395818E-01  0.50000500000E+01  0.50000000000E+01 0. -1.
</event>
<event>
 4    1  0.5060607E-021  0.5000050E+01  0.7818608E-02  0.2136455E+00
        -11   -1    0    0    0    0  0.00000000000E+00  0.00000000000E+00  0.50000499739E+01  0.50000500000E+01  0.51100000000E-03 0.  1.
         11   -1    0    0    0    0 -0.00000000000E+00 -0.00000000000E+00 -0.50000499739E+01  0.50000500000E+01  0.51100000000E-03 0. -1.
         50    1    1    2    0    0  0.13336897345E-01 -0.57784448445E-02  0.16992328986E-01  0.50000500000E+01  0.50000000000E+01 0.  1.
         50    1    1    2    0    0 -0.13336897345E-01  0.57784448445E-02 -0.16992328986E-01  0.50000500000E+01  0.50000000000E+01 0. -1.
</event>
<event>
 4    1  0.5060607E-021  0.5000050E+01  0.7818608E-02  0.2136455E+00
        -11   -1    0    0    0    0  0.00000000000E+00  0.00000000000E+00  0.50000499739E+01  0.50000500000E+01  0.51100000000E-03 0. -1.
         11   -1    0    0    0    0 -0.00000000000E+00 -0.00000000000E+00 -0.50000499739E+01  0.50000500000E+01  0.51100000000E-03 0.  1.
         50    1    1    2    0    0  0.19006998922E-01  0.91489787793E-02  0.74184013961E-02  0.50000500000E+01  0.50000000000E+01 0. -1.
         50    1    1    2    0    0 -0.19006998922E-01 -0.91489787793E-02 -0.74184013961E-02  0.50000500000E+01  0.50000000000E+01 0.  1.
</event>
<event>
 4    1  0.5060607E-021  0.5000050E+01  0.7818608E-02  0.2136455E+00
        -11   -1    0    0    0    0  0.00000000000E+00  0.00000000000E+00  0.50000499739E+01  0.50000500000E+01  0.51100000000E-03 0. -1.
         11   -1    0    0    0    0 -0.00000000000E+00 -0.00000000000E+00 -0.50000499739E+01  0.50000500000E+01  0.51100000000E-03 0.  1.
         50    1    1    2    0    0  0.88317095262E-03  0.12528712871E-01  0.18500104401E-01  0.50000500000E+01  0.50000000000E+01 0. -1.
         50    1    1    2    0    0 -0.88317095262E-03 -0.12528712871E-01 -0.18500104401E-01  0.50000500000E+01  0.50000000000E+01 0.  1.
</event>
<event>
 4    1  0.5060607E-021  0.5000050E+01  0.7818608E-02  0.2136455E+00
        -11   -1    0    0    0    0  0.00000000000E+00  0.00000000000E+00  0.50000499739E+01  0.50000500000E+01  0.51100000000E-03 0.  1.
         11   -1    0    0    0    0 -0.00000000000E+00 -0.00000000000E+00 -0.50000499739E+01  0.50000500000E+01  0.51100000000E-03 0. -1.
         50    1    1    2    0    0  0.10148578544E-01  0.19788787608E-01  0.23265292925E-02  0.50000500000E+01  0.50000000000E+01 0.  0.
         50    1    1    2    0    0 -0.10148578544E-01 -0.19788787608E-01 -0.23265292925E-02  0.50000500000E+01  0.50000000000E+01 0. -1.
</event>
<event>
 4    1  0.5060607E-021  0.5000050E+01  0.7818608E-02  0.2136455E+00
        -11   -1    0    0    0    0  0.00000000000E+00  0.00000000000E+00  0.50000499739E+01  0.50000500000E+01  0.51100000000E-03 0. -1.
         11   -1    0    0    0    0 -0.00000000000E+00 -0.00000000000E+00 -0.50000499739E+01  0.50000500000E+01  0.51100000000E-03 0.  1.
         50    1    1    2    0    0 -0.68900529840E-02 -0.16057664910E-01  0.13952815756E-01  0.50000500000E+01  0.50000000000E+01 0.  0.
         50    1    1    2    0    0  0.68900529840E-02  0.16057664910E-01 -0.13952815756E-01  0.50000500000E+01  0.50000000000E+01 0. -1.
</event>
<event>
 4    1  0.5060607E-021  0.5000050E+01  0.7818608E-02  0.2136455E+00
        -11   -1    0    0    0    0  0.00000000000E+00  0.00000000000E+00  0.50000499739E+01  0.50000500000E+01  0.51100000000E-03 0. -1.
         11   -1    0    0    0    0 -0.00000000000E+00 -0.00000000000E+00 -0.50000499739E+01  0.50000500000E+01  0.51100000000E-03 0.  1.
         50    1    1    2    0    0 -0.18931303691E-01  0.38795806933E-03  0.11893600343E-01  0.50000500000E+01  0.50000000000E+01 0. -1.
         50    1    1    2    0    0  0.18931303691E-01 -0.38795806933E-03 -0.11893600343E-01  0.50000500000E+01  0.50000000000E+01 0.  1.
</event>
<event>
 4    1  0.5060607E-021  0.5000050E+01  0.7818608E-02  0.2136455E+00
        -11   -1    0    0    0    0  0.00000000000E+00  0.00000000000E+00  0.50000499739E+01  0.50000500000E+01  0.51100000000E-03 0.  1.
         11   -1    0    0    0    0 -0.00000000000E+00 -0.00000000000E+00 -0.50000499739E+01  0.50000500000E+01  0.51100000000E-03 0. -1.
         50    1    1    2    0    0 -0.53753032802E-02  0.17641853921E-01 -0.12644113448E-01  0.50000500000E+01  0.50000000000E+01 0. -1.
         50    1    1    2    0    0  0.53753032802E-02 -0.17641853921E-01  0.12644113448E-01  0.50000500000E+01  0.50000000000E+01 0.  1.
</event>
<event>
 4    1  0.5060607E-021  0.5000050E+01  0.7818608E-02  0.2136455E+00
        -11   -1    0    0    0    0  0.00000000000E+00  0.00000000000E+00  0.50000499739E+01  0.50000500000E+01  0.51100000000E-03 0.  1.
         11   -1    0    0    0    0 -0.00000000000E+00 -0.00000000000E+00 -0.50000499739E+01  0.50000500000E+01  0.51100000000E-03 0. -1.
         50    1    1    2    0    0  0.46592112689E-02  0.18756990997E-01 -0.11245867645E-01  0.50000500000E+01  0.50000000000E+01 0.  0.
         50    1    1    2    0    0 -0.46592112689E-02 -0.18756990997E-01  0.11245867645E-01  0.50000500000E+01  0.50000000000E+01 0. -1.
</event>
<event>
 4    1  0.5060607E-021  0.5000050E+01  0.7818608E-02  0.2136455E+00
        -11   -1    0    0    0    0  0.00000000000E+00  0.00000000000E+00  0.50000499739E+01  0.50000500000E+01  0.51100000000E-03 0.  1.
         11   -1    0    0    0    0 -0.00000000000E+00 -0.00000000000E+00 -0.50000499739E+01  0.50000500000E+01  0.51100000000E-03 0. -1.
         50    1    1    2    0    0 -0.80479088032E-02  0.93216201663E-02  0.18663897272E-01  0.50000500000E+01  0.50000000000E+01 0.  1.
         50    1    1    2    0    0  0.80479088032E-02 -0.93216201663E-02 -0.18663897272E-01  0.50000500000E+01  0.50000000000E+01 0. -1.
</event>
<event>
 4    1  0.5060607E-021  0.5000050E+01  0.7818608E-02  0.2136455E+00
        -11   -1    0    0    0    0  0.00000000000E+00  0.00000000000E+00  0.50000499739E+01  0.50000500000E+01  0.51100000000E-03 0. -1.
         11   -1    0    0    0    0 -0.00000000000E+00 -0.00000000000E+00 -0.50000499739E+01  0.50000500000E+01  0.51100000000E-03 0.  1.
         50    1    1    2    0    0 -0.19927450862E-01  0.40791064935E-03  0.10135719563E-01  0.50000500000E+01  0.50000000000E+01 0.  1.
         50    1    1    2    0    0  0.19927450862E-01 -0.40791064935E-03 -0.10135719563E-01  0.50000500000E+01  0.50000000000E+01 0. -1.
</event>
<event>
 4    1  0.5060607E-021  0.5000050E+01  0.7818608E-02  0.2136455E+00
        -11   -1    0    0    0    0  0.00000000000E+00  0.00000000000E+00  0.50000499739E+01  0.50000500000E+01  0.51100000000E-03 0.  1.
         11   -1    0    0    0    0 -0.00000000000E+00 -0.00000000000E+00 -0.50000499739E+01  0.50000500000E+01  0.51100000000E-03 0. -1.
         50    1    1    2    0    0  0.91589988094E-02 -0.75357877267E-02 -0.18955926359E-01  0.50000500000E+01  0.50000000000E+01 0.  0.
         50    1    1    2    0    0 -0.91589988094E-02  0.75357877267E-02  0.18955926359E-01  0.50000500000E+01  0.50000000000E+01 0.  0.
</event>
<event>
 4    1  0.5060607E-021  0.5000050E+01  0.7818608E-02  0.2136455E+00
        -11   -1    0    0    0    0  0.00000000000E+00  0.00000000000E+00  0.50000499739E+01  0.50000500000E+01  0.51100000000E-03 0.  1.
         11   -1    0    0    0    0 -0.00000000000E+00 -0.00000000000E+00 -0.50000499739E+01  0.50000500000E+01  0.51100000000E-03 0. -1.
         50    1    1    2    0    0 -0.40684059320E-02 -0.21801020621E-01  0.28576341727E-02  0.50000500000E+01  0.50000000000E+01 0.  1.
         50    1    1    2    0    0  0.40684059320E-02  0.21801020621E-01 -0.28576341727E-02  0.50000500000E+01  0.50000000000E+01 0.  0.
</event>
<event>
 4    1  0.5060607E-021  0.5000050E+01  0.7818608E-02  0.2136455E+00
        -11   -1    0    0    0    0  0.00000000000E+00  0.00000000000E+00  0.50000499739E+01  0.50000500000E+01  0.51100000000E-03 0. -1.
         11   -1    0    0    0    0 -0.00000000000E+00 -0.00000000000E+00 -0.50000499739E+01  0.50000500000E+01  0.51100000000E-03 0.  1.
         50    1    1    2    0    0  0.13557236124E-01 -0.13512013123E-01  0.11559816177E-01  0.50000500000E+01  0.50000000000E+01 0.  0.
         50    1    1    2    0    0 -0.13557236124E-01  0.13512013123E-01 -0.11559816177E-01  0.50000500000E+01  0.50000000000E+01 0.  0.
</event>
<event>
 4    1  0.5060607E-021  0.5000050E+01  0.7818608E-02  0.2136455E+00
        -11   -1    0    0    0    0  0.00000000000E+00  0.00000000000E+00  0.50000499739E+01  0.50000500000E+01  0.51100000000E-03 0.  1.
         11   -1    0    0    0    0 -0.00000000000E+00 -0.00000000000E+00 -0.50000499739E+01  0.50000500000E+01  0.51100000000E-03 0. -1.
         50    1    1    2    0    0 -0.11020224629E-01  0.45237391912E-02 -0.18923343596E-01  0.50000500000E+01  0.50000000000E+01 0. -1.
         50    1    1    2    0    0  0.11020224629E-01 -0.45237391912E-02  0.18923343596E-01  0.50000500000E+01  0.50000000000E+01 0.  0.
</event>
<event>
 4    1  0.5060607E-021  0.5000050E+01  0.7818608E-02  0.2136455E+00
        -11   -1    0    0    0    0  0.00000000000E+00  0.00000000000E+00  0.50000499739E+01  0.50000500000E+01  0.51100000000E-03 0.  1.
         11   -1    0    0    0    0 -0.00000000000E+00 -0.00000000000E+00 -0.50000499739E+01  0.50000500000E+01  0.51100000000E-03 0. -1.
         50    1    1    2    0    0 -0.14756657504E-01 -0.10080802965E-01  0.13439530159E-01  0.50000500000E+01  0.50000000000E+01 0.  0.
         50    1    1    2    0    0  0.14756657504E-01  0.10080802965E-01 -0.13439530159E-01  0.50000500000E+01  0.50000000000E+01 0.  0.
</event>
<event>
 4    1  0.5060607E-021  0.5000050E+01  0.7818608E-02  0.2136455E+00
        -11   -1    0    0    0    0  0.00000000000E+00  0.00000000000E+00  0.50000499739E+01  0.50000500000E+01  0.51100000000E-03 0.  1.
         11   -1    0    0    0    0 -0.00000000000E+00 -0.00000000000E+00 -0.50000499739E+01  0.50000500000E+01  0.51100000000E-03 0. -1.
         50    1    1    2    0    0 -0.71913253979E-02 -0.19299443127E-01 -0.87074011053E-02  0.50000500000E+01  0.50000000000E+01 0. -1.
         50    1    1    2    0    0  0.71913253979E-02  0.19299443127E-01  0.87074011053E-02  0.50000500000E+01  0.50000000000E+01 0.  1.
</event>
<event>
 4    1  0.5060607E-021  0.5000050E+01  0.7818608E-02  0.2136455E+00
        -11   -1    0    0    0    0  0.00000000000E+00  0.00000000000E+00  0.50000499739E+01  0.50000500000E+01  0.51100000000E-03 0.  1.
         11   -1    0    0    0    0 -0.00000000000E+00 -0.00000000000E+00 -0.50000499739E+01  0.50000500000E+01  0.51100000000E-03 0. -1.
         50    1    1    2    0    0 -0.16630832939E-01 -0.29004886413E-02 -0.14663050890E-01  0.50000500000E+01  0.50000000000E+01 0.  1.
         50    1    1    2    0    0  0.16630832939E-01  0.29004886413E-02  0.14663050890E-01  0.50000500000E+01  0.50000000000E+01 0.  1.
</event>
<event>
 4    1  0.5060607E-021  0.5000050E+01  0.7818608E-02  0.2136455E+00
        -11   -1    0    0    0    0  0.00000000000E+00  0.00000000000E+00  0.50000499739E+01  0.50000500000E+01  0.51100000000E-03 0.  1.
         11   -1    0    0    0    0 -0.00000000000E+00 -0.00000000000E+00 -0.50000499739E+01  0.50000500000E+01  0.51100000000E-03 0. -1.
         50    1    1    2    0    0  0.21983253550E-01  0.30827035555E-02  0.26899818087E-02  0.50000500000E+01  0.50000000000E+01 0.  0.
         50    1    1    2    0    0 -0.21983253550E-01 -0.30827035555E-02 -0.26899818087E-02  0.50000500000E+01  0.50000000000E+01 0.  1.
</event>
<event>
 4    1  0.5060607E-021  0.5000050E+01  0.7818608E-02  0.2136455E+00
        -11   -1    0    0    0    0  0.00000000000E+00  0.00000000000E+00  0.50000499739E+01  0.50000500000E+01  0.51100000000E-03 0. -1.
         11   -1    0    0    0    0 -0.00000000000E+00 -0.00000000000E+00 -0.50000499739E+01  0.50000500000E+01  0.51100000000E-03 0.  1.
         50    1    1    2    0    0  0.78353743040E-02 -0.17676756637E-01  0.11231281508E-01  0.50000500000E+01  0.50000000000E+01 0. -1.
         50    1    1    2    0    0 -0.78353743040E-02  0.17676756637E-01 -0.11231281508E-01  0.50000500000E+01  0.50000000000E+01 0.  1.
</event>
<event>
 4    1  0.5060607E-021  0.5000050E+01  0.7818608E-02  0.2136455E+00
        -11   -1    0    0    0    0  0.00000000000E+00  0.00000000000E+00  0.50000499739E+01  0.50000500000E+01  0.51100000000E-03 0.  1.
         11   -1    0    0    0    0 -0.00000000000E+00 -0.00000000000E+00 -0.50000499739E+01  0.50000500000E+01  0.51100000000E-03 0. -1.
         50    1    1    2    0    0  0.16726038111E-01  0.43071177820E-02  0.14201791631E-01  0.50000500000E+01  0.50000000000E+01 0.  1.
         50    1    1    2    0    0 -0.16726038111E-01 -0.43071177820E-02 -0.14201791631E-01  0.50000500000E+01  0.50000000000E+01 0. -1.
</event>
<event>
 4    1  0.5060607E-021  0.5000050E+01  0.7818608E-02  0.2136455E+00
        -11   -1    0    0    0    0  0.00000000000E+00  0.00000000000E+00  0.50000499739E+01  0.50000500000E+01  0.51100000000E-03 0.  1.
         11   -1    0    0    0    0 -0.00000000000E+00 -0.00000000000E+00 -0.50000499739E+01  0.50000500000E+01  0.51100000000E-03 0. -1.
         50    1    1    2    0    0  0.13694317358E-01  0.17267858343E-01 -0.37801111554E-02  0.50000500000E+01  0.50000000000E+01 0.  1.
         50    1    1    2    0    0 -0.13694317358E-01 -0.17267858343E-01  0.37801111554E-02  0.50000500000E+01  0.50000000000E+01 0.  0.
</event>
<event>
 4    1  0.5060607E-021  0.5000050E+01  0.7818608E-02  0.2136455E+00
        -11   -1    0    0    0    0  0.00000000000E+00  0.00000000000E+00  0.50000499739E+01  0.50000500000E+01  0.51100000000E-03 0. -1.
         11   -1    0    0    0    0 -0.00000000000E+00 -0.00000000000E+00 -0.50000499739E+01  0.50000500000E+01  0.51100000000E-03 0.  1.
         50    1    1    2    0    0 -0.81082989739E-03 -0.21004433454E-01 -0.76261936873E-02  0.50000500000E+01  0.50000000000E+01 0.  1.
         50    1    1    2    0    0  0.81082989739E-03  0.21004433454E-01  0.76261936873E-02  0.50000500000E+01  0.50000000000E+01 0. -1.
</event>
<event>
 4    1  0.5060607E-021  0.5000050E+01  0.7818608E-02  0.2136455E+00
        -11   -1    0    0    0    0  0.00000000000E+00  0.00000000000E+00  0.50000499739E+01  0.50000500000E+01  0.51100000000E-03 0. -1.
         11   -1    0    0    0    0 -0.00000000000E+00 -0.00000000000E+00 -0.50000499739E+01  0.50000500000E+01  0.51100000000E-03 0.  1.
         50    1    1    2    0    0  0.52974220984E-02  0.78967632127E-02 -0.20238106381E-01  0.50000500000E+01  0.50000000000E+01 0.  1.
         50    1    1    2    0    0 -0.52974220984E-02 -0.78967632127E-02  0.20238106381E-01  0.50000500000E+01  0.50000000000E+01 0.  1.
</event>
<event>
 4    1  0.5060607E-021  0.5000050E+01  0.7818608E-02  0.2136455E+00
        -11   -1    0    0    0    0  0.00000000000E+00  0.00000000000E+00  0.50000499739E+01  0.50000500000E+01  0.51100000000E-03 0.  1.
         11   -1    0    0    0    0 -0.00000000000E+00 -0.00000000000E+00 -0.50000499739E+01  0.50000500000E+01  0.51100000000E-03 0. -1.
         50    1    1    2    0    0 -0.94561036856E-02 -0.11772187952E-01 -0.16492428381E-01  0.50000500000E+01  0.50000000000E+01 0. -1.
         50    1    1    2    0    0  0.94561036856E-02  0.11772187952E-01  0.16492428381E-01  0.50000500000E+01  0.50000000000E+01 0. -1.
</event>
<event>
 4    1  0.5060607E-021  0.5000050E+01  0.7818608E-02  0.2136455E+00
        -11   -1    0    0    0    0  0.00000000000E+00  0.00000000000E+00  0.50000499739E+01  0.50000500000E+01  0.51100000000E-03 0.  1.
         11   -1    0    0    0    0 -0.00000000000E+00 -0.00000000000E+00 -0.50000499739E+01  0.50000500000E+01  0.51100000000E-03 0. -1.
         50    1    1    2    0    0 -0.42705289280E-02  0.64631801671E-02  0.20975995442E-01  0.50000500000E+01  0.50000000000E+01 0.  0.
         50    1    1    2    0    0  0.42705289280E-02 -0.64631801671E-02 -0.20975995442E-01  0.50000500000E+01  0.50000000000E+01 0. -1.
</event>
<event>
 4    1  0.5060607E-021  0.5000050E+01  0.7818608E-02  0.2136455E+00
        -11   -1    0    0    0    0  0.00000000000E+00  0.00000000000E+00  0.50000499739E+01  0.50000500000E+01  0.51100000000E-03 0. -1.
         11   -1    0    0    0    0 -0.00000000000E+00 -0.00000000000E+00 -0.50000499739E+01  0.50000500000E+01  0.51100000000E-03 0.  1.
         50    1    1    2    0    0 -0.13803257873E-01  0.16875464627E-01 -0.49690306626E-02  0.50000500000E+01  0.50000000000E+01 0.  1.
         50    1    1    2    0    0  0.13803257873E-01 -0.16875464627E-01  0.49690306626E-02  0.50000500000E+01  0.50000000000E+01 0. -1.
</event>
<event>
 4    1  0.5060607E-021  0.5000050E+01  0.7818608E-02  0.2136455E+00
        -11   -1    0    0    0    0  0.00000000000E+00  0.00000000000E+00  0.50000499739E+01  0.50000500000E+01  0.51100000000E-03 0. -1.
         11   -1    0    0    0    0 -0.00000000000E+00 -0.00000000000E+00 -0.50000499739E+01  0.50000500000E+01  0.51100000000E-03 0.  1.
         50    1    1    2    0    0 -0.51333587351E-02 -0.20689570781E-01  0.67522432555E-02  0.50000500000E+01  0.50000000000E+01 0.  1.
         50    1    1    2    0    0  0.51333587351E-02  0.20689570781E-01 -0.67522432555E-02  0.50000500000E+01  0.50000000000E+01 0. -1.
</event>
<event>
 4    1  0.5060607E-021  0.5000050E+01  0.7818608E-02  0.2136455E+00
        -11   -1    0    0    0    0  0.00000000000E+00  0.00000000000E+00  0.50000499739E+01  0.50000500000E+01  0.51100000000E-03 0.  1.
         11   -1    0    0    0    0 -0.00000000000E+00 -0.00000000000E+00 -0.50000499739E+01  0.50000500000E+01  0.51100000000E-03 0. -1.
         50    1    1    2    0    0 -0.52363942645E-02 -0.19296795610E-01 -0.10010811869E-01  0.50000500000E+01  0.50000000000E+01 0. -1.
         50    1    1    2    0    0  0.52363942645E-02  0.19296795610E-01  0.10010811869E-01  0.50000500000E+01  0.50000000000E+01 0.  1.
</event>
<event>
 4    1  0.5060607E-021  0.5000050E+01  0.7818608E-02  0.2136455E+00
        -11   -1    0    0    0    0  0.00000000000E+00  0.00000000000E+00  0.50000499739E+01  0.50000500000E+01  0.51100000000E-03 0.  1.
         11   -1    0    0    0    0 -0.00000000000E+00 -0.00000000000E+00 -0.50000499739E+01  0.50000500000E+01  0.51100000000E-03 0. -1.
         50    1    1    2    0    0 -0.21119780015E-01  0.72513531224E-02 -0.11727190750E-02  0.50000500000E+01  0.50000000000E+01 0. -1.
         50    1    1    2    0    0  0.21119780015E-01 -0.72513531224E-02  0.11727190750E-02  0.50000500000E+01  0.50000000000E+01 0.  0.
</event>
<event>
 4    1  0.5060607E-021  0.5000050E+01  0.7818608E-02  0.2136455E+00
        -11   -1    0    0    0    0  0.00000000000E+00  0.00000000000E+00  0.50000499739E+01  0.50000500000E+01  0.51100000000E-03 0.  1.
         11   -1    0    0    0    0 -0.00000000000E+00 -0.00000000000E+00 -0.50000499739E+01  0.50000500000E+01  0.51100000000E-03 0. -1.
         50    1    1    2    0    0 -0.22093629473E-01  0.51261946707E-03 -0.34075296033E-02  0.50000500000E+01  0.50000000000E+01 0. -1.
         50    1    1    2    0    0  0.22093629473E-01 -0.51261946707E-03  0.34075296033E-02  0.50000500000E+01  0.50000000000E+01 0.  0.
</event>
<event>
 4    1  0.5060607E-021  0.5000050E+01  0.7818608E-02  0.2136455E+00
        -11   -1    0    0    0    0  0.00000000000E+00  0.00000000000E+00  0.50000499739E+01  0.50000500000E+01  0.51100000000E-03 0.  1.
         11   -1    0    0    0    0 -0.00000000000E+00 -0.00000000000E+00 -0.50000499739E+01  0.50000500000E+01  0.51100000000E-03 0. -1.
         50    1    1    2    0    0  0.28788636417E-02 -0.20698600946E-01 -0.79550338151E-02  0.50000500000E+01  0.50000000000E+01 0. -1.
         50    1    1    2    0    0 -0.28788636417E-02  0.20698600946E-01  0.79550338151E-02  0.50000500000E+01  0.50000000000E+01 0.  1.
</event>
<event>
 4    1  0.5060607E-021  0.5000050E+01  0.7818608E-02  0.2136455E+00
        -11   -1    0    0    0    0  0.00000000000E+00  0.00000000000E+00  0.50000499739E+01  0.50000500000E+01  0.51100000000E-03 0. -1.
         11   -1    0    0    0    0 -0.00000000000E+00 -0.00000000000E+00 -0.50000499739E+01  0.50000500000E+01  0.51100000000E-03 0.  1.
         50    1    1    2    0    0  0.14778568330E-01 -0.51741078129E-02 -0.15963239848E-01  0.50000500000E+01  0.50000000000E+01 0.  1.
         50    1    1    2    0    0 -0.14778568330E-01  0.51741078129E-02  0.15963239848E-01  0.50000500000E+01  0.50000000000E+01 0. -1.
</event>
<event>
 4    1  0.5060607E-021  0.5000050E+01  0.7818608E-02  0.2136455E+00
        -11   -1    0    0    0    0  0.00000000000E+00  0.00000000000E+00  0.50000499739E+01  0.50000500000E+01  0.51100000000E-03 0. -1.
         11   -1    0    0    0    0 -0.00000000000E+00 -0.00000000000E+00 -0.50000499739E+01  0.50000500000E+01  0.51100000000E-03 0.  1.
         50    1    1    2    0    0  0.86671497476E-02  0.20163638071E-01  0.42791021262E-02  0.50000500000E+01  0.50000000000E+01 0.  0.
         50    1    1    2    0    0 -0.86671497476E-02 -0.20163638071E-01 -0.42791021262E-02  0.50000500000E+01  0.50000000000E+01 0.  0.
</event>
<event>
 4    1  0.5060607E-021  0.5000050E+01  0.7818608E-02  0.2136455E+00
        -11   -1    0    0    0    0  0.00000000000E+00  0.00000000000E+00  0.50000499739E+01  0.50000500000E+01  0.51100000000E-03 0. -1.
         11   -1    0    0    0    0 -0.00000000000E+00 -0.00000000000E+00 -0.50000499739E+01  0.50000500000E+01  0.51100000000E-03 0.  1.
         50    1    1    2    0    0 -0.62870759913E-02 -0.14436473970E-01 -0.15876504489E-01  0.50000500000E+01  0.50000000000E+01 0.  0.
         50    1    1    2    0    0  0.62870759913E-02  0.14436473970E-01  0.15876504489E-01  0.50000500000E+01  0.50000000000E+01 0. -1.
</event>
<event>
 4    1  0.5060607E-021  0.5000050E+01  0.7818608E-02  0.2136455E+00
        -11   -1    0    0    0    0  0.00000000000E+00  0.00000000000E+00  0.50000499739E+01  0.50000500000E+01  0.51100000000E-03 0. -1.
         11   -1    0    0    0    0 -0.00000000000E+00 -0.00000000000E+00 -0.50000499739E+01  0.50000500000E+01  0.51100000000E-03 0.  1.
         50    1    1    2    0    0  0.17612783620E-01  0.10220476063E-01  0.92376524188E-02  0.50000500000E+01  0.50000000000E+01 0.  0.
         50    1    1    2    0    0 -0.17612783620E-01 -0.10220476063E-01 -0.92376524188E-02  0.50000500000E+01  0.50000000000E+01 0.  0.
</event>
<event>
 4    1  0.5060607E-021  0.5000050E+01  0.7818608E-02  0.2136455E+00
        -11   -1    0    0    0    0  0.00000000000E+00  0.00000000000E+00  0.50000499739E+01  0.50000500000E+01  0.51100000000E-03 0.  1.
         11   -1    0    0    0    0 -0.00000000000E+00 -0.00000000000E+00 -0.50000499739E+01  0.50000500000E+01  0.51100000000E-03 0. -1.
         50    1    1    2    0    0 -0.14481620024E-01 -0.73693769523E-02 -0.15361558020E-01  0.50000500000E+01  0.50000000000E+01 0.  0.
         50    1    1    2    0    0  0.14481620024E-01  0.73693769523E-02  0.15361558020E-01  0.50000500000E+01  0.50000000000E+01 0.  0.
</event>
<event>
 4    1  0.5060607E-021  0.5000050E+01  0.7818608E-02  0.2136455E+00
        -11   -1    0    0    0    0  0.00000000000E+00  0.00000000000E+00  0.50000499739E+01  0.50000500000E+01  0.51100000000E-03 0. -1.
         11   -1    0    0    0    0 -0.00000000000E+00 -0.00000000000E+00 -0.50000499739E+01  0.50000500000E+01  0.51100000000E-03 0.  1.
         50    1    1    2    0    0 -0.70455380467E-02  0.47929991718E-02  0.20673414149E-01  0.50000500000E+01  0.50000000000E+01 0. -1.
         50    1    1    2    0    0  0.70455380467E-02 -0.47929991718E-02 -0.20673414149E-01  0.50000500000E+01  0.50000000000E+01 0.  0.
</event>
<event>
 4    1  0.5060607E-021  0.5000050E+01  0.7818608E-02  0.2136455E+00
        -11   -1    0    0    0    0  0.00000000000E+00  0.00000000000E+00  0.50000499739E+01  0.50000500000E+01  0.51100000000E-03 0.  1.
         11   -1    0    0    0    0 -0.00000000000E+00 -0.00000000000E+00 -0.50000499739E+01  0.50000500000E+01  0.51100000000E-03 0. -1.
         50    1    1    2    0    0 -0.17231730656E-01  0.10716467726E-01 -0.93929376696E-02  0.50000500000E+01  0.50000000000E+01 0.  1.
         50    1    1    2    0    0  0.17231730656E-01 -0.10716467726E-01  0.93929376696E-02  0.50000500000E+01  0.50000000000E+01 0.  0.
</event>
<event>
 4    1  0.5060607E-021  0.5000050E+01  0.7818608E-02  0.2136455E+00
        -11   -1    0    0    0    0  0.00000000000E+00  0.00000000000E+00  0.50000499739E+01  0.50000500000E+01  0.51100000000E-03 0. -1.
         11   -1    0    0    0    0 -0.00000000000E+00 -0.00000000000E+00 -0.50000499739E+01  0.50000500000E+01  0.51100000000E-03 0.  1.
         50    1    1    2    0    0 -0.11268267019E-02  0.15895862497E-01 -0.15686118610E-01  0.50000500000E+01  0.50000000000E+01 0.  0.
         50    1    1    2    0    0  0.11268267019E-02 -0.15895862497E-01  0.15686118610E-01  0.50000500000E+01  0.50000000000E+01 0.  0.
</event>
<event>
 4    1  0.5060607E-021  0.5000050E+01  0.7818608E-02  0.2136455E+00
        -11   -1    0    0    0    0  0.00000000000E+00  0.00000000000E+00  0.50000499739E+01  0.50000500000E+01  0.51100000000E-03 0.  1.
         11   -1    0    0    0    0 -0.00000000000E+00 -0.00000000000E+00 -0.50000499739E+01  0.50000500000E+01  0.51100000000E-03 0. -1.
         50    1    1    2    0    0 -0.67730081273E-02  0.21222898337E-01 -0.19280682277E-02  0.50000500000E+01  0.50000000000E+01 0.  0.
         50    1    1    2    0    0  0.67730081273E-02 -0.21222898337E-01  0.19280682277E-02  0.50000500000E+01  0.50000000000E+01 0. -1.
</event>
<event>
 4    1  0.5060607E-021  0.5000050E+01  0.7818608E-02  0.2136455E+00
        -11   -1    0    0    0    0  0.00000000000E+00  0.00000000000E+00  0.50000499739E+01  0.50000500000E+01  0.51100000000E-03 0.  1.
         11   -1    0    0    0    0 -0.00000000000E+00 -0.00000000000E+00 -0.50000499739E+01  0.50000500000E+01  0.51100000000E-03 0. -1.
         50    1    1    2    0    0 -0.95078850337E-03  0.11679354587E-01  0.19044452674E-01  0.50000500000E+01  0.50000000000E+01 0.  0.
         50    1    1    2    0    0  0.95078850337E-03 -0.11679354587E-01 -0.19044452674E-01  0.50000500000E+01  0.50000000000E+01 0. -1.
</event>
<event>
 4    1  0.5060607E-021  0.5000050E+01  0.7818608E-02  0.2136455E+00
        -11   -1    0    0    0    0  0.00000000000E+00  0.00000000000E+00  0.50000499739E+01  0.50000500000E+01  0.51100000000E-03 0. -1.
         11   -1    0    0    0    0 -0.00000000000E+00 -0.00000000000E+00 -0.50000499739E+01  0.50000500000E+01  0.51100000000E-03 0.  1.
         50    1    1    2    0    0 -0.49877754988E-02  0.18759094084E-01 -0.11100494797E-01  0.50000500000E+01  0.50000000000E+01 0.  1.
         50    1    1    2    0    0  0.49877754988E-02 -0.18759094084E-01  0.11100494797E-01  0.50000500000E+01  0.50000000000E+01 0.  1.
</event>
<event>
 4    1  0.5060607E-021  0.5000050E+01  0.7818608E-02  0.2136455E+00
        -11   -1    0    0    0    0  0.00000000000E+00  0.00000000000E+00  0.50000499739E+01  0.50000500000E+01  0.51100000000E-03 0.  1.
         11   -1    0    0    0    0 -0.00000000000E+00 -0.00000000000E+00 -0.50000499739E+01  0.50000500000E+01  0.51100000000E-03 0. -1.
         50    1    1    2    0    0  0.16299361935E-01  0.55276302981E-02 -0.14275104336E-01  0.50000500000E+01  0.50000000000E+01 0. -1.
         50    1    1    2    0    0 -0.16299361935E-01 -0.55276302981E-02  0.14275104336E-01  0.50000500000E+01  0.50000000000E+01 0.  1.
</event>
<event>
 4    1  0.5060607E-021  0.5000050E+01  0.7818608E-02  0.2136455E+00
        -11   -1    0    0    0    0  0.00000000000E+00  0.00000000000E+00  0.50000499739E+01  0.50000500000E+01  0.51100000000E-03 0. -1.
         11   -1    0    0    0    0 -0.00000000000E+00 -0.00000000000E+00 -0.50000499739E+01  0.50000500000E+01  0.51100000000E-03 0.  1.
         50    1    1    2    0    0  0.86336931483E-02  0.12963845909E-01 -0.16043707236E-01  0.50000500000E+01  0.50000000000E+01 0.  1.
         50    1    1    2    0    0 -0.86336931483E-02 -0.12963845909E-01  0.16043707236E-01  0.50000500000E+01  0.50000000000E+01 0. -1.
</event>
<event>
 4    1  0.5060607E-021  0.5000050E+01  0.7818608E-02  0.2136455E+00
        -11   -1    0    0    0    0  0.00000000000E+00  0.00000000000E+00  0.50000499739E+01  0.50000500000E+01  0.51100000000E-03 0. -1.
         11   -1    0    0    0    0 -0.00000000000E+00 -0.00000000000E+00 -0.50000499739E+01  0.50000500000E+01  0.51100000000E-03 0.  1.
         50    1    1    2    0    0  0.77026676338E-02 -0.31070187294E-02 -0.20760969292E-01  0.50000500000E+01  0.50000000000E+01 0.  1.
         50    1    1    2    0    0 -0.77026676338E-02  0.31070187294E-02  0.20760969292E-01  0.50000500000E+01  0.50000000000E+01 0.  0.
</event>
<event>
 4    1  0.5060607E-021  0.5000050E+01  0.7818608E-02  0.2136455E+00
        -11   -1    0    0    0    0  0.00000000000E+00  0.00000000000E+00  0.50000499739E+01  0.50000500000E+01  0.51100000000E-03 0.  1.
         11   -1    0    0    0    0 -0.00000000000E+00 -0.00000000000E+00 -0.50000499739E+01  0.50000500000E+01  0.51100000000E-03 0. -1.
         50    1    1    2    0    0  0.51252950252E-02 -0.29097311156E-02 -0.21570055998E-01  0.50000500000E+01  0.50000000000E+01 0.  0.
         50    1    1    2    0    0 -0.51252950252E-02  0.29097311156E-02  0.21570055998E-01  0.50000500000E+01  0.50000000000E+01 0.  1.
</event>
<event>
 4    1  0.5060607E-021  0.5000050E+01  0.7818608E-02  0.2136455E+00
        -11   -1    0    0    0    0  0.00000000000E+00  0.00000000000E+00  0.50000499739E+01  0.50000500000E+01  0.51100000000E-03 0. -1.
         11   -1    0    0    0    0 -0.00000000000E+00 -0.00000000000E+00 -0.50000499739E+01  0.50000500000E+01  0.51100000000E-03 0.  1.
         50    1    1    2    0    0  0.73813823416E-02  0.20883664120E-01  0.30643543620E-02  0.50000500000E+01  0.50000000000E+01 0.  1.
         50    1    1    2    0    0 -0.73813823416E-02 -0.20883664120E-01 -0.30643543620E-02  0.50000500000E+01  0.50000000000E+01 0.  0.
</event>
<event>
 4    1  0.5060607E-021  0.5000050E+01  0.7818608E-02  0.2136455E+00
        -11   -1    0    0    0    0  0.00000000000E+00  0.00000000000E+00  0.50000499739E+01  0.50000500000E+01  0.51100000000E-03 0.  1.
         11   -1    0    0    0    0 -0.00000000000E+00 -0.00000000000E+00 -0.50000499739E+01  0.50000500000E+01  0.51100000000E-03 0. -1.
         50    1    1    2    0    0 -0.16060536398E-01 -0.99585908469E-02 -0.11953582683E-01  0.50000500000E+01  0.50000000000E+01 0.  0.
         50    1    1    2    0    0  0.16060536398E-01  0.99585908469E-02  0.11953582683E-01  0.50000500000E+01  0.50000000000E+01 0. -1.
</event>
<event>
 4    1  0.5060607E-021  0.5000050E+01  0.7818608E-02  0.2136455E+00
        -11   -1    0    0    0    0  0.00000000000E+00  0.00000000000E+00  0.50000499739E+01  0.50000500000E+01  0.51100000000E-03 0. -1.
         11   -1    0    0    0    0 -0.00000000000E+00 -0.00000000000E+00 -0.50000499739E+01  0.50000500000E+01  0.51100000000E-03 0.  1.
         50    1    1    2    0    0  0.38150248383E-02  0.17792181421E-02 -0.21960930497E-01  0.50000500000E+01  0.50000000000E+01 0.  1.
         50    1    1    2    0    0 -0.38150248383E-02 -0.17792181421E-02  0.21960930497E-01  0.50000500000E+01  0.50000000000E+01 0.  0.
</event>
<event>
 4    1  0.5060607E-021  0.5000050E+01  0.7818608E-02  0.2136455E+00
        -11   -1    0    0    0    0  0.00000000000E+00  0.00000000000E+00  0.50000499739E+01  0.50000500000E+01  0.51100000000E-03 0.  1.
         11   -1    0    0    0    0 -0.00000000000E+00 -0.00000000000E+00 -0.50000499739E+01  0.50000500000E+01  0.51100000000E-03 0. -1.
         50    1    1    2    0    0  0.12476119785E-01 -0.15196920047E-01 -0.10649063630E-01  0.50000500000E+01  0.50000000000E+01 0.  1.
         50    1    1    2    0    0 -0.12476119785E-01  0.15196920047E-01  0.10649063630E-01  0.50000500000E+01  0.50000000000E+01 0.  0.
</event>
<event>
 4    1  0.5060607E-021  0.5000050E+01  0.7818608E-02  0.2136455E+00
        -11   -1    0    0    0    0  0.00000000000E+00  0.00000000000E+00  0.50000499739E+01  0.50000500000E+01  0.51100000000E-03 0. -1.
         11   -1    0    0    0    0 -0.00000000000E+00 -0.00000000000E+00 -0.50000499739E+01  0.50000500000E+01  0.51100000000E-03 0.  1.
         50    1    1    2    0    0  0.21337242350E-01 -0.54313062730E-02 -0.39019868094E-02  0.50000500000E+01  0.50000000000E+01 0. -1.
         50    1    1    2    0    0 -0.21337242350E-01  0.54313062730E-02  0.39019868094E-02  0.50000500000E+01  0.50000000000E+01 0.  0.
</event>
<event>
 4    1  0.5060607E-021  0.5000050E+01  0.7818608E-02  0.2136455E+00
        -11   -1    0    0    0    0  0.00000000000E+00  0.00000000000E+00  0.50000499739E+01  0.50000500000E+01  0.51100000000E-03 0.  1.
         11   -1    0    0    0    0 -0.00000000000E+00 -0.00000000000E+00 -0.50000499739E+01  0.50000500000E+01  0.51100000000E-03 0. -1.
         50    1    1    2    0    0 -0.15182307238E-01 -0.10811149114E-01  0.12353910383E-01  0.50000500000E+01  0.50000000000E+01 0.  1.
         50    1    1    2    0    0  0.15182307238E-01  0.10811149114E-01 -0.12353910383E-01  0.50000500000E+01  0.50000000000E+01 0. -1.
</event>
<event>
 4    1  0.5060607E-021  0.5000050E+01  0.7818608E-02  0.2136455E+00
        -11   -1    0    0    0    0  0.00000000000E+00  0.00000000000E+00  0.50000499739E+01  0.50000500000E+01  0.51100000000E-03 0. -1.
         11   -1    0    0    0    0 -0.00000000000E+00 -0.00000000000E+00 -0.50000499739E+01  0.50000500000E+01  0.51100000000E-03 0.  1.
         50    1    1    2    0    0  0.21517451338E-01  0.60717445717E-02  0.36838264633E-03  0.50000500000E+01  0.50000000000E+01 0. -1.
         50    1    1    2    0    0 -0.21517451338E-01 -0.60717445717E-02 -0.36838264633E-03  0.50000500000E+01  0.50000000000E+01 0.  0.
</event>
<event>
 4    1  0.5060607E-021  0.5000050E+01  0.7818608E-02  0.2136455E+00
        -11   -1    0    0    0    0  0.00000000000E+00  0.00000000000E+00  0.50000499739E+01  0.50000500000E+01  0.51100000000E-03 0.  1.
         11   -1    0    0    0    0 -0.00000000000E+00 -0.00000000000E+00 -0.50000499739E+01  0.50000500000E+01  0.51100000000E-03 0. -1.
         50    1    1    2    0    0 -0.87461478274E-02 -0.67320512400E-02 -0.19447027646E-01  0.50000500000E+01  0.50000000000E+01 0. -1.
         50    1    1    2    0    0  0.87461478274E-02  0.67320512400E-02  0.19447027646E-01  0.50000500000E+01  0.50000000000E+01 0.  1.
</event>
<event>
 4    1  0.5060607E-021  0.5000050E+01  0.7818608E-02  0.2136455E+00
        -11   -1    0    0    0    0  0.00000000000E+00  0.00000000000E+00  0.50000499739E+01  0.50000500000E+01  0.51100000000E-03 0.  1.
         11   -1    0    0    0    0 -0.00000000000E+00 -0.00000000000E+00 -0.50000499739E+01  0.50000500000E+01  0.51100000000E-03 0. -1.
         50    1    1    2    0    0  0.10613069046E-01  0.15567174768E-01 -0.12042771076E-01  0.50000500000E+01  0.50000000000E+01 0.  1.
         50    1    1    2    0    0 -0.10613069046E-01 -0.15567174768E-01  0.12042771076E-01  0.50000500000E+01  0.50000000000E+01 0.  0.
</event>
<event>
 4    1  0.5060607E-021  0.5000050E+01  0.7818608E-02  0.2136455E+00
        -11   -1    0    0    0    0  0.00000000000E+00  0.00000000000E+00  0.50000499739E+01  0.50000500000E+01  0.51100000000E-03 0. -1.
         11   -1    0    0    0    0 -0.00000000000E+00 -0.00000000000E+00 -0.50000499739E+01  0.50000500000E+01  0.51100000000E-03 0.  1.
         50    1    1    2    0    0 -0.14991506482E-01 -0.16539698040E-01 -0.13021605601E-02  0.50000500000E+01  0.50000000000E+01 0.  1.
         50    1    1    2    0    0  0.14991506482E-01  0.16539698040E-01  0.13021605601E-02  0.50000500000E+01  0.50000000000E+01 0. -1.
</event>
<event>
 4    1  0.5060607E-021  0.5000050E+01  0.7818608E-02  0.2136455E+00
        -11   -1    0    0    0    0  0.00000000000E+00  0.00000000000E+00  0.50000499739E+01  0.50000500000E+01  0.51100000000E-03 0. -1.
         11   -1    0    0    0    0 -0.00000000000E+00 -0.00000000000E+00 -0.50000499739E+01  0.50000500000E+01  0.51100000000E-03 0.  1.
         50    1    1    2    0    0 -0.11171294197E-01 -0.10465855739E-01 -0.16299403351E-01  0.50000500000E+01  0.50000000000E+01 0.  0.
         50    1    1    2    0    0  0.11171294197E-01  0.10465855739E-01  0.16299403351E-01  0.50000500000E+01  0.50000000000E+01 0. -1.
</event>
<event>
 4    1  0.5060607E-021  0.5000050E+01  0.7818608E-02  0.2136455E+00
        -11   -1    0    0    0    0  0.00000000000E+00  0.00000000000E+00  0.50000499739E+01  0.50000500000E+01  0.51100000000E-03 0.  1.
         11   -1    0    0    0    0 -0.00000000000E+00 -0.00000000000E+00 -0.50000499739E+01  0.50000500000E+01  0.51100000000E-03 0. -1.
         50    1    1    2    0    0 -0.10901609643E-01  0.10652624889E-01 -0.16360898208E-01  0.50000500000E+01  0.50000000000E+01 0. -1.
         50    1    1    2    0    0  0.10901609643E-01 -0.10652624889E-01  0.16360898208E-01  0.50000500000E+01  0.50000000000E+01 0.  1.
</event>
<event>
 4    1  0.5060607E-021  0.5000050E+01  0.7818608E-02  0.2136455E+00
        -11   -1    0    0    0    0  0.00000000000E+00  0.00000000000E+00  0.50000499739E+01  0.50000500000E+01  0.51100000000E-03 0.  1.
         11   -1    0    0    0    0 -0.00000000000E+00 -0.00000000000E+00 -0.50000499739E+01  0.50000500000E+01  0.51100000000E-03 0. -1.
         50    1    1    2    0    0 -0.99926510451E-02  0.16530559697E-01  0.11264547092E-01  0.50000500000E+01  0.50000000000E+01 0.  0.
         50    1    1    2    0    0  0.99926510451E-02 -0.16530559697E-01 -0.11264547092E-01  0.50000500000E+01  0.50000000000E+01 0.  0.
</event>
<event>
 4    1  0.5060607E-021  0.5000050E+01  0.7818608E-02  0.2136455E+00
        -11   -1    0    0    0    0  0.00000000000E+00  0.00000000000E+00  0.50000499739E+01  0.50000500000E+01  0.51100000000E-03 0.  1.
         11   -1    0    0    0    0 -0.00000000000E+00 -0.00000000000E+00 -0.50000499739E+01  0.50000500000E+01  0.51100000000E-03 0. -1.
         50    1    1    2    0    0 -0.11050684969E-02 -0.17165409183E-01  0.14287408834E-01  0.50000500000E+01  0.50000000000E+01 0.  0.
         50    1    1    2    0    0  0.11050684969E-02  0.17165409183E-01 -0.14287408834E-01  0.50000500000E+01  0.50000000000E+01 0.  0.
</event>
<event>
 4    1  0.5060607E-021  0.5000050E+01  0.7818608E-02  0.2136455E+00
        -11   -1    0    0    0    0  0.00000000000E+00  0.00000000000E+00  0.50000499739E+01  0.50000500000E+01  0.51100000000E-03 0.  1.
         11   -1    0    0    0    0 -0.00000000000E+00 -0.00000000000E+00 -0.50000499739E+01  0.50000500000E+01  0.51100000000E-03 0. -1.
         50    1    1    2    0    0  0.78460866705E-02 -0.20634716860E-01 -0.35566675519E-02  0.50000500000E+01  0.50000000000E+01 0.  1.
         50    1    1    2    0    0 -0.78460866705E-02  0.20634716860E-01  0.35566675519E-02  0.50000500000E+01  0.50000000000E+01 0.  0.
</event>
<event>
 4    1  0.5060607E-021  0.5000050E+01  0.7818608E-02  0.2136455E+00
        -11   -1    0    0    0    0  0.00000000000E+00  0.00000000000E+00  0.50000499739E+01  0.50000500000E+01  0.51100000000E-03 0.  1.
         11   -1    0    0    0    0 -0.00000000000E+00 -0.00000000000E+00 -0.50000499739E+01  0.50000500000E+01  0.51100000000E-03 0. -1.
         50    1    1    2    0    0 -0.21776766423E-01 -0.49035562957E-03  0.50531668809E-02  0.50000500000E+01  0.50000000000E+01 0.  0.
         50    1    1    2    0    0  0.21776766423E-01  0.49035562957E-03 -0.50531668809E-02  0.50000500000E+01  0.50000000000E+01 0. -1.
</event>
<event>
 4    1  0.5060607E-021  0.5000050E+01  0.7818608E-02  0.2136455E+00
        -11   -1    0    0    0    0  0.00000000000E+00  0.00000000000E+00  0.50000499739E+01  0.50000500000E+01  0.51100000000E-03 0. -1.
         11   -1    0    0    0    0 -0.00000000000E+00 -0.00000000000E+00 -0.50000499739E+01  0.50000500000E+01  0.51100000000E-03 0.  1.
         50    1    1    2    0    0  0.18477891007E-01  0.12545440707E-01 -0.10871804934E-02  0.50000500000E+01  0.50000000000E+01 0. -1.
         50    1    1    2    0    0 -0.18477891007E-01 -0.12545440707E-01  0.10871804934E-02  0.50000500000E+01  0.50000000000E+01 0.  0.
</event>
<event>
 4    1  0.5060607E-021  0.5000050E+01  0.7818608E-02  0.2136455E+00
        -11   -1    0    0    0    0  0.00000000000E+00  0.00000000000E+00  0.50000499739E+01  0.50000500000E+01  0.51100000000E-03 0. -1.
         11   -1    0    0    0    0 -0.00000000000E+00 -0.00000000000E+00 -0.50000499739E+01  0.50000500000E+01  0.51100000000E-03 0.  1.
         50    1    1    2    0    0  0.20462638953E-01 -0.74952010105E-02  0.50104759140E-02  0.50000500000E+01  0.50000000000E+01 0.  0.
         50    1    1    2    0    0 -0.20462638953E-01  0.74952010105E-02 -0.50104759140E-02  0.50000500000E+01  0.50000000000E+01 0. -1.
</event>
<event>
 4    1  0.5060607E-021  0.5000050E+01  0.7818608E-02  0.2136455E+00
        -11   -1    0    0    0    0  0.00000000000E+00  0.00000000000E+00  0.50000499739E+01  0.50000500000E+01  0.51100000000E-03 0.  1.
         11   -1    0    0    0    0 -0.00000000000E+00 -0.00000000000E+00 -0.50000499739E+01  0.50000500000E+01  0.51100000000E-03 0. -1.
         50    1    1    2    0    0  0.22354617723E-01 -0.38263849813E-03 -0.35658691119E-03  0.50000500000E+01  0.50000000000E+01 0.  1.
         50    1    1    2    0    0 -0.22354617723E-01  0.38263849813E-03  0.35658691119E-03  0.50000500000E+01  0.50000000000E+01 0. -1.
</event>
<event>
 4    1  0.5060607E-021  0.5000050E+01  0.7818608E-02  0.2136455E+00
        -11   -1    0    0    0    0  0.00000000000E+00  0.00000000000E+00  0.50000499739E+01  0.50000500000E+01  0.51100000000E-03 0. -1.
         11   -1    0    0    0    0 -0.00000000000E+00 -0.00000000000E+00 -0.50000499739E+01  0.50000500000E+01  0.51100000000E-03 0.  1.
         50    1    1    2    0    0  0.11661607028E-01  0.65670153810E-02  0.17913227808E-01  0.50000500000E+01  0.50000000000E+01 0. -1.
         50    1    1    2    0    0 -0.11661607028E-01 -0.65670153810E-02 -0.17913227808E-01  0.50000500000E+01  0.50000000000E+01 0.  1.
</event>
<event>
 4    1  0.5060607E-021  0.5000050E+01  0.7818608E-02  0.2136455E+00
        -11   -1    0    0    0    0  0.00000000000E+00  0.00000000000E+00  0.50000499739E+01  0.50000500000E+01  0.51100000000E-03 0. -1.
         11   -1    0    0    0    0 -0.00000000000E+00 -0.00000000000E+00 -0.50000499739E+01  0.50000500000E+01  0.51100000000E-03 0.  1.
         50    1    1    2    0    0  0.20269090843E-01 -0.67809378855E-02 -0.65715552045E-02  0.50000500000E+01  0.50000000000E+01 0. -1.
         50    1    1    2    0    0 -0.20269090843E-01  0.67809378855E-02  0.65715552045E-02  0.50000500000E+01  0.50000000000E+01 0.  0.
</event>
<event>
 4    1  0.5060607E-021  0.5000050E+01  0.7818608E-02  0.2136455E+00
        -11   -1    0    0    0    0  0.00000000000E+00  0.00000000000E+00  0.50000499739E+01  0.50000500000E+01  0.51100000000E-03 0.  1.
         11   -1    0    0    0    0 -0.00000000000E+00 -0.00000000000E+00 -0.50000499739E+01  0.50000500000E+01  0.51100000000E-03 0. -1.
         50    1    1    2    0    0 -0.20853552443E-01  0.54172624337E-02 -0.59820663851E-02  0.50000500000E+01  0.50000000000E+01 0.  1.
         50    1    1    2    0    0  0.20853552443E-01 -0.54172624337E-02  0.59820663851E-02  0.50000500000E+01  0.50000000000E+01 0. -1.
</event>
<event>
 4    1  0.5060607E-021  0.5000050E+01  0.7818608E-02  0.2136455E+00
        -11   -1    0    0    0    0  0.00000000000E+00  0.00000000000E+00  0.50000499739E+01  0.50000500000E+01  0.51100000000E-03 0.  1.
         11   -1    0    0    0    0 -0.00000000000E+00 -0.00000000000E+00 -0.50000499739E+01  0.50000500000E+01  0.51100000000E-03 0. -1.
         50    1    1    2    0    0  0.94181485863E-02  0.19960289535E-01 -0.35899608441E-02  0.50000500000E+01  0.50000000000E+01 0. -1.
         50    1    1    2    0    0 -0.94181485863E-02 -0.19960289535E-01  0.35899608441E-02  0.50000500000E+01  0.50000000000E+01 0.  1.
</event>
<event>
 4    1  0.5060607E-021  0.5000050E+01  0.7818608E-02  0.2136455E+00
        -11   -1    0    0    0    0  0.00000000000E+00  0.00000000000E+00  0.50000499739E+01  0.50000500000E+01  0.51100000000E-03 0.  1.
         11   -1    0    0    0    0 -0.00000000000E+00 -0.00000000000E+00 -0.50000499739E+01  0.50000500000E+01  0.51100000000E-03 0. -1.
         50    1    1    2    0    0  0.12483434660E-01  0.89836028333E-03 -0.18529957040E-01  0.50000500000E+01  0.50000000000E+01 0.  0.
         50    1    1    2    0    0 -0.12483434660E-01 -0.89836028333E-03  0.18529957040E-01  0.50000500000E+01  0.50000000000E+01 0. -1.
</event>
<event>
 4    1  0.5060607E-021  0.5000050E+01  0.7818608E-02  0.2136455E+00
        -11   -1    0    0    0    0  0.00000000000E+00  0.00000000000E+00  0.50000499739E+01  0.50000500000E+01  0.51100000000E-03 0.  1.
         11   -1    0    0    0    0 -0.00000000000E+00 -0.00000000000E+00 -0.50000499739E+01  0.50000500000E+01  0.51100000000E-03 0. -1.
         50    1    1    2    0    0 -0.48750371270E-02 -0.71323707464E-04 -0.21822727280E-01  0.50000500000E+01  0.50000000000E+01 0. -1.
         50    1    1    2    0    0  0.48750371270E-02  0.71323707464E-04  0.21822727280E-01  0.50000500000E+01  0.50000000000E+01 0.  0.
</event>
<event>
 4    1  0.5060607E-021  0.5000050E+01  0.7818608E-02  0.2136455E+00
        -11   -1    0    0    0    0  0.00000000000E+00  0.00000000000E+00  0.50000499739E+01  0.50000500000E+01  0.51100000000E-03 0.  1.
         11   -1    0    0    0    0 -0.00000000000E+00 -0.00000000000E+00 -0.50000499739E+01  0.50000500000E+01  0.51100000000E-03 0. -1.
         50    1    1    2    0    0 -0.14770332548E-01 -0.76713134177E-02  0.14932874032E-01  0.50000500000E+01  0.50000000000E+01 0.  0.
         50    1    1    2    0    0  0.14770332548E-01  0.76713134177E-02 -0.14932874032E-01  0.50000500000E+01  0.50000000000E+01 0.  0.
</event>
<event>
 4    1  0.5060607E-021  0.5000050E+01  0.7818608E-02  0.2136455E+00
        -11   -1    0    0    0    0  0.00000000000E+00  0.00000000000E+00  0.50000499739E+01  0.50000500000E+01  0.51100000000E-03 0.  1.
         11   -1    0    0    0    0 -0.00000000000E+00 -0.00000000000E+00 -0.50000499739E+01  0.50000500000E+01  0.51100000000E-03 0. -1.
         50    1    1    2    0    0  0.10721788693E-01  0.97661841119E-02  0.17019617948E-01  0.50000500000E+01  0.50000000000E+01 0.  1.
         50    1    1    2    0    0 -0.10721788693E-01 -0.97661841119E-02 -0.17019617948E-01  0.50000500000E+01  0.50000000000E+01 0. -1.
</event>
<event>
 4    1  0.5060607E-021  0.5000050E+01  0.7818608E-02  0.2136455E+00
        -11   -1    0    0    0    0  0.00000000000E+00  0.00000000000E+00  0.50000499739E+01  0.50000500000E+01  0.51100000000E-03 0.  1.
         11   -1    0    0    0    0 -0.00000000000E+00 -0.00000000000E+00 -0.50000499739E+01  0.50000500000E+01  0.51100000000E-03 0. -1.
         50    1    1    2    0    0  0.67934964075E-02  0.15050656339E-02  0.21250545499E-01  0.50000500000E+01  0.50000000000E+01 0.  0.
         50    1    1    2    0    0 -0.67934964075E-02 -0.15050656339E-02 -0.21250545499E-01  0.50000500000E+01  0.50000000000E+01 0. -1.
</event>
<event>
 4    1  0.5060607E-021  0.5000050E+01  0.7818608E-02  0.2136455E+00
        -11   -1    0    0    0    0  0.00000000000E+00  0.00000000000E+00  0.50000499739E+01  0.50000500000E+01  0.51100000000E-03 0. -1.
         11   -1    0    0    0    0 -0.00000000000E+00 -0.00000000000E+00 -0.50000499739E+01  0.50000500000E+01  0.51100000000E-03 0.  1.
         50    1    1    2    0    0 -0.37723233444E-02 -0.14095674247E-01 -0.16943554648E-01  0.50000500000E+01  0.50000000000E+01 0.  1.
         50    1    1    2    0    0  0.37723233444E-02  0.14095674247E-01  0.16943554648E-01  0.50000500000E+01  0.50000000000E+01 0. -1.
</event>
<event>
 4    1  0.5060607E-021  0.5000050E+01  0.7818608E-02  0.2136455E+00
        -11   -1    0    0    0    0  0.00000000000E+00  0.00000000000E+00  0.50000499739E+01  0.50000500000E+01  0.51100000000E-03 0.  1.
         11   -1    0    0    0    0 -0.00000000000E+00 -0.00000000000E+00 -0.50000499739E+01  0.50000500000E+01  0.51100000000E-03 0. -1.
         50    1    1    2    0    0 -0.18940015446E-01  0.96023124869E-02  0.70052772827E-02  0.50000500000E+01  0.50000000000E+01 0.  0.
         50    1    1    2    0    0  0.18940015446E-01 -0.96023124869E-02 -0.70052772827E-02  0.50000500000E+01  0.50000000000E+01 0.  1.
</event>
<event>
 4    1  0.5060607E-021  0.5000050E+01  0.7818608E-02  0.2136455E+00
        -11   -1    0    0    0    0  0.00000000000E+00  0.00000000000E+00  0.50000499739E+01  0.50000500000E+01  0.51100000000E-03 0.  1.
         11   -1    0    0    0    0 -0.00000000000E+00 -0.00000000000E+00 -0.50000499739E+01  0.50000500000E+01  0.51100000000E-03 0. -1.
         50    1    1    2    0    0 -0.17397851129E-01 -0.11273452200E-01  0.83801283736E-02  0.50000500000E+01  0.50000000000E+01 0.  1.
         50    1    1    2    0    0  0.17397851129E-01  0.11273452200E-01 -0.83801283736E-02  0.50000500000E+01  0.50000000000E+01 0. -1.
</event>
<event>
 4    1  0.5060607E-021  0.5000050E+01  0.7818608E-02  0.2136455E+00
        -11   -1    0    0    0    0  0.00000000000E+00  0.00000000000E+00  0.50000499739E+01  0.50000500000E+01  0.51100000000E-03 0. -1.
         11   -1    0    0    0    0 -0.00000000000E+00 -0.00000000000E+00 -0.50000499739E+01  0.50000500000E+01  0.51100000000E-03 0.  1.
         50    1    1    2    0    0  0.15349456583E-01 -0.15518028557E-01 -0.48566935561E-02  0.50000500000E+01  0.50000000000E+01 0.  0.
         50    1    1    2    0    0 -0.15349456583E-01  0.15518028557E-01  0.48566935561E-02  0.50000500000E+01  0.50000000000E+01 0.  1.
</event>
<event>
 4    1  0.5060607E-021  0.5000050E+01  0.7818608E-02  0.2136455E+00
        -11   -1    0    0    0    0  0.00000000000E+00  0.00000000000E+00  0.50000499739E+01  0.50000500000E+01  0.51100000000E-03 0.  1.
         11   -1    0    0    0    0 -0.00000000000E+00 -0.00000000000E+00 -0.50000499739E+01  0.50000500000E+01  0.51100000000E-03 0. -1.
         50    1    1    2    0    0 -0.61026745770E-03  0.82879789962E-02 -0.20759081815E-01  0.50000500000E+01  0.50000000000E+01 0. -1.
         50    1    1    2    0    0  0.61026745770E-03 -0.82879789962E-02  0.20759081815E-01  0.50000500000E+01  0.50000000000E+01 0.  0.
</event>
<event>
 4    1  0.5060607E-021  0.5000050E+01  0.7818608E-02  0.2136455E+00
        -11   -1    0    0    0    0  0.00000000000E+00  0.00000000000E+00  0.50000499739E+01  0.50000500000E+01  0.51100000000E-03 0. -1.
         11   -1    0    0    0    0 -0.00000000000E+00 -0.00000000000E+00 -0.50000499739E+01  0.50000500000E+01  0.51100000000E-03 0.  1.
         50    1    1    2    0    0  0.38818316909E-02 -0.58295445024E-02  0.21235590258E-01  0.50000500000E+01  0.50000000000E+01 0. -1.
         50    1    1    2    0    0 -0.38818316909E-02  0.58295445024E-02 -0.21235590258E-01  0.50000500000E+01  0.50000000000E+01 0.  0.
</event>
<event>
 4    1  0.5060607E-021  0.5000050E+01  0.7818608E-02  0.2136455E+00
        -11   -1    0    0    0    0  0.00000000000E+00  0.00000000000E+00  0.50000499739E+01  0.50000500000E+01  0.51100000000E-03 0.  1.
         11   -1    0    0    0    0 -0.00000000000E+00 -0.00000000000E+00 -0.50000499739E+01  0.50000500000E+01  0.51100000000E-03 0. -1.
         50    1    1    2    0    0  0.45812815532E-02  0.21869091680E-01  0.87016573319E-03  0.50000500000E+01  0.50000000000E+01 0.  1.
         50    1    1    2    0    0 -0.45812815532E-02 -0.21869091680E-01 -0.87016573319E-03  0.50000500000E+01  0.50000000000E+01 0. -1.
</event>
<event>
 4    1  0.5060607E-021  0.5000050E+01  0.7818608E-02  0.2136455E+00
        -11   -1    0    0    0    0  0.00000000000E+00  0.00000000000E+00  0.50000499739E+01  0.50000500000E+01  0.51100000000E-03 0. -1.
         11   -1    0    0    0    0 -0.00000000000E+00 -0.00000000000E+00 -0.50000499739E+01  0.50000500000E+01  0.51100000000E-03 0.  1.
         50    1    1    2    0    0 -0.88132383868E-03  0.19678461925E-01 -0.10582244779E-01  0.50000500000E+01  0.50000000000E+01 0.  0.
         50    1    1    2    0    0  0.88132383868E-03 -0.19678461925E-01  0.10582244779E-01  0.50000500000E+01  0.50000000000E+01 0.  1.
</event>
<event>
 4    1  0.5060607E-021  0.5000050E+01  0.7818608E-02  0.2136455E+00
        -11   -1    0    0    0    0  0.00000000000E+00  0.00000000000E+00  0.50000499739E+01  0.50000500000E+01  0.51100000000E-03 0. -1.
         11   -1    0    0    0    0 -0.00000000000E+00 -0.00000000000E+00 -0.50000499739E+01  0.50000500000E+01  0.51100000000E-03 0.  1.
         50    1    1    2    0    0 -0.29338097786E-02 -0.20051316387E-01 -0.94519824022E-02  0.50000500000E+01  0.50000000000E+01 0.  1.
         50    1    1    2    0    0  0.29338097786E-02  0.20051316387E-01  0.94519824022E-02  0.50000500000E+01  0.50000000000E+01 0. -1.
</event>
<event>
 4    1  0.5060607E-021  0.5000050E+01  0.7818608E-02  0.2136455E+00
        -11   -1    0    0    0    0  0.00000000000E+00  0.00000000000E+00  0.50000499739E+01  0.50000500000E+01  0.51100000000E-03 0.  1.
         11   -1    0    0    0    0 -0.00000000000E+00 -0.00000000000E+00 -0.50000499739E+01  0.50000500000E+01  0.51100000000E-03 0. -1.
         50    1    1    2    0    0 -0.54298978803E-02  0.99375885052E-02  0.19281157738E-01  0.50000500000E+01  0.50000000000E+01 0.  0.
         50    1    1    2    0    0  0.54298978803E-02 -0.99375885052E-02 -0.19281157738E-01  0.50000500000E+01  0.50000000000E+01 0.  0.
</event>
<event>
 4    1  0.5060607E-021  0.5000050E+01  0.7818608E-02  0.2136455E+00
        -11   -1    0    0    0    0  0.00000000000E+00  0.00000000000E+00  0.50000499739E+01  0.50000500000E+01  0.51100000000E-03 0.  1.
         11   -1    0    0    0    0 -0.00000000000E+00 -0.00000000000E+00 -0.50000499739E+01  0.50000500000E+01  0.51100000000E-03 0. -1.
         50    1    1    2    0    0 -0.71938912305E-02  0.60015784425E-02  0.20303484557E-01  0.50000500000E+01  0.50000000000E+01 0. -1.
         50    1    1    2    0    0  0.71938912305E-02 -0.60015784425E-02 -0.20303484557E-01  0.50000500000E+01  0.50000000000E+01 0. -1.
</event>
<event>
 4    1  0.5060607E-021  0.5000050E+01  0.7818608E-02  0.2136455E+00
        -11   -1    0    0    0    0  0.00000000000E+00  0.00000000000E+00  0.50000499739E+01  0.50000500000E+01  0.51100000000E-03 0.  1.
         11   -1    0    0    0    0 -0.00000000000E+00 -0.00000000000E+00 -0.50000499739E+01  0.50000500000E+01  0.51100000000E-03 0. -1.
         50    1    1    2    0    0  0.12972246029E-01  0.79793177180E-02 -0.16372349304E-01  0.50000500000E+01  0.50000000000E+01 0. -1.
         50    1    1    2    0    0 -0.12972246029E-01 -0.79793177180E-02  0.16372349304E-01  0.50000500000E+01  0.50000000000E+01 0.  0.
</event>
<event>
 4    1  0.5060607E-021  0.5000050E+01  0.7818608E-02  0.2136455E+00
        -11   -1    0    0    0    0  0.00000000000E+00  0.00000000000E+00  0.50000499739E+01  0.50000500000E+01  0.51100000000E-03 0. -1.
         11   -1    0    0    0    0 -0.00000000000E+00 -0.00000000000E+00 -0.50000499739E+01  0.50000500000E+01  0.51100000000E-03 0.  1.
         50    1    1    2    0    0  0.17420625138E-01  0.10452670351E-01  0.93416273919E-02  0.50000500000E+01  0.50000000000E+01 0. -1.
         50    1    1    2    0    0 -0.17420625138E-01 -0.10452670351E-01 -0.93416273919E-02  0.50000500000E+01  0.50000000000E+01 0.  1.
</event>
<event>
 4    1  0.5060607E-021  0.5000050E+01  0.7818608E-02  0.2136455E+00
        -11   -1    0    0    0    0  0.00000000000E+00  0.00000000000E+00  0.50000499739E+01  0.50000500000E+01  0.51100000000E-03 0. -1.
         11   -1    0    0    0    0 -0.00000000000E+00 -0.00000000000E+00 -0.50000499739E+01  0.50000500000E+01  0.51100000000E-03 0.  1.
         50    1    1    2    0    0 -0.67858694401E-02 -0.26636455282E-02  0.21139050793E-01  0.50000500000E+01  0.50000000000E+01 0. -1.
         50    1    1    2    0    0  0.67858694401E-02  0.26636455282E-02 -0.21139050793E-01  0.50000500000E+01  0.50000000000E+01 0.  1.
</event>
<event>
 4    1  0.5060607E-021  0.5000050E+01  0.7818608E-02  0.2136455E+00
        -11   -1    0    0    0    0  0.00000000000E+00  0.00000000000E+00  0.50000499739E+01  0.50000500000E+01  0.51100000000E-03 0.  1.
         11   -1    0    0    0    0 -0.00000000000E+00 -0.00000000000E+00 -0.50000499739E+01  0.50000500000E+01  0.51100000000E-03 0. -1.
         50    1    1    2    0    0 -0.22127912232E-01  0.24405312097E-02 -0.20980485420E-02  0.50000500000E+01  0.50000000000E+01 0. -1.
         50    1    1    2    0    0  0.22127912232E-01 -0.24405312097E-02  0.20980485420E-02  0.50000500000E+01  0.50000000000E+01 0.  1.
</event>
<event>
 4    1  0.5060607E-021  0.5000050E+01  0.7818608E-02  0.2136455E+00
        -11   -1    0    0    0    0  0.00000000000E+00  0.00000000000E+00  0.50000499739E+01  0.50000500000E+01  0.51100000000E-03 0.  1.
         11   -1    0    0    0    0 -0.00000000000E+00 -0.00000000000E+00 -0.50000499739E+01  0.50000500000E+01  0.51100000000E-03 0. -1.
         50    1    1    2    0    0  0.16820654676E-01 -0.14713920397E-01 -0.75407083390E-03  0.50000500000E+01  0.50000000000E+01 0. -1.
         50    1    1    2    0    0 -0.16820654676E-01  0.14713920397E-01  0.75407083390E-03  0.50000500000E+01  0.50000000000E+01 0.  1.
</event>
<event>
 4    1  0.5060607E-021  0.5000050E+01  0.7818608E-02  0.2136455E+00
        -11   -1    0    0    0    0  0.00000000000E+00  0.00000000000E+00  0.50000499739E+01  0.50000500000E+01  0.51100000000E-03 0.  1.
         11   -1    0    0    0    0 -0.00000000000E+00 -0.00000000000E+00 -0.50000499739E+01  0.50000500000E+01  0.51100000000E-03 0. -1.
         50    1    1    2    0    0  0.12694878739E-01  0.23721495071E-02 -0.18254190218E-01  0.50000500000E+01  0.50000000000E+01 0. -1.
         50    1    1    2    0    0 -0.12694878739E-01 -0.23721495071E-02  0.18254190218E-01  0.50000500000E+01  0.50000000000E+01 0.  1.
</event>
<event>
 4    1  0.5060607E-021  0.5000050E+01  0.7818608E-02  0.2136455E+00
        -11   -1    0    0    0    0  0.00000000000E+00  0.00000000000E+00  0.50000499739E+01  0.50000500000E+01  0.51100000000E-03 0.  1.
         11   -1    0    0    0    0 -0.00000000000E+00 -0.00000000000E+00 -0.50000499739E+01  0.50000500000E+01  0.51100000000E-03 0. -1.
         50    1    1    2    0    0  0.20590137143E-01 -0.86726002399E-02  0.91365065679E-03  0.50000500000E+01  0.50000000000E+01 0.  0.
         50    1    1    2    0    0 -0.20590137143E-01  0.86726002399E-02 -0.91365065679E-03  0.50000500000E+01  0.50000000000E+01 0. -1.
</event>
<event>
 4    1  0.5060607E-021  0.5000050E+01  0.7818608E-02  0.2136455E+00
        -11   -1    0    0    0    0  0.00000000000E+00  0.00000000000E+00  0.50000499739E+01  0.50000500000E+01  0.51100000000E-03 0. -1.
         11   -1    0    0    0    0 -0.00000000000E+00 -0.00000000000E+00 -0.50000499739E+01  0.50000500000E+01  0.51100000000E-03 0.  1.
         50    1    1    2    0    0 -0.11989276525E-01 -0.10127062482E-01  0.15928036724E-01  0.50000500000E+01  0.50000000000E+01 0.  0.
         50    1    1    2    0    0  0.11989276525E-01  0.10127062482E-01 -0.15928036724E-01  0.50000500000E+01  0.50000000000E+01 0.  1.
</event>
<event>
 4    1  0.5060607E-021  0.5000050E+01  0.7818608E-02  0.2136455E+00
        -11   -1    0    0    0    0  0.00000000000E+00  0.00000000000E+00  0.50000499739E+01  0.50000500000E+01  0.51100000000E-03 0. -1.
         11   -1    0    0    0    0 -0.00000000000E+00 -0.00000000000E+00 -0.50000499739E+01  0.50000500000E+01  0.51100000000E-03 0.  1.
         50    1    1    2    0    0 -0.16006368300E-01 -0.14861355803E-01  0.47894443867E-02  0.50000500000E+01  0.50000000000E+01 0.  1.
         50    1    1    2    0    0  0.16006368300E-01  0.14861355803E-01 -0.47894443867E-02  0.50000500000E+01  0.50000000000E+01 0. -1.
</event>
<event>
 4    1  0.5060607E-021  0.5000050E+01  0.7818608E-02  0.2136455E+00
        -11   -1    0    0    0    0  0.00000000000E+00  0.00000000000E+00  0.50000499739E+01  0.50000500000E+01  0.51100000000E-03 0. -1.
         11   -1    0    0    0    0 -0.00000000000E+00 -0.00000000000E+00 -0.50000499739E+01  0.50000500000E+01  0.51100000000E-03 0.  1.
         50    1    1    2    0    0  0.61539178807E-02  0.20991938450E-01 -0.46336071065E-02  0.50000500000E+01  0.50000000000E+01 0.  1.
         50    1    1    2    0    0 -0.61539178807E-02 -0.20991938450E-01  0.46336071065E-02  0.50000500000E+01  0.50000000000E+01 0. -1.
</event>
<event>
 4    1  0.5060607E-021  0.5000050E+01  0.7818608E-02  0.2136455E+00
        -11   -1    0    0    0    0  0.00000000000E+00  0.00000000000E+00  0.50000499739E+01  0.50000500000E+01  0.51100000000E-03 0. -1.
         11   -1    0    0    0    0 -0.00000000000E+00 -0.00000000000E+00 -0.50000499739E+01  0.50000500000E+01  0.51100000000E-03 0.  1.
         50    1    1    2    0    0  0.96981727230E-02  0.16993134379E-02 -0.20076361216E-01  0.50000500000E+01  0.50000000000E+01 0.  0.
         50    1    1    2    0    0 -0.96981727230E-02 -0.16993134379E-02  0.20076361216E-01  0.50000500000E+01  0.50000000000E+01 0. -1.
</event>
<event>
 4    1  0.5060607E-021  0.5000050E+01  0.7818608E-02  0.2136455E+00
        -11   -1    0    0    0    0  0.00000000000E+00  0.00000000000E+00  0.50000499739E+01  0.50000500000E+01  0.51100000000E-03 0.  1.
         11   -1    0    0    0    0 -0.00000000000E+00 -0.00000000000E+00 -0.50000499739E+01  0.50000500000E+01  0.51100000000E-03 0. -1.
         50    1    1    2    0    0  0.16450324498E-01 -0.14005347242E-01  0.57653770496E-02  0.50000500000E+01  0.50000000000E+01 0. -1.
         50    1    1    2    0    0 -0.16450324498E-01  0.14005347242E-01 -0.57653770496E-02  0.50000500000E+01  0.50000000000E+01 0.  1.
</event>
<event>
 4    1  0.5060607E-021  0.5000050E+01  0.7818608E-02  0.2136455E+00
        -11   -1    0    0    0    0  0.00000000000E+00  0.00000000000E+00  0.50000499739E+01  0.50000500000E+01  0.51100000000E-03 0.  1.
         11   -1    0    0    0    0 -0.00000000000E+00 -0.00000000000E+00 -0.50000499739E+01  0.50000500000E+01  0.51100000000E-03 0. -1.
         50    1    1    2    0    0  0.28036032941E-02  0.21124694535E-01  0.67741855131E-02  0.50000500000E+01  0.50000000000E+01 0. -1.
         50    1    1    2    0    0 -0.28036032941E-02 -0.21124694535E-01 -0.67741855131E-02  0.50000500000E+01  0.50000000000E+01 0.  0.
</event>
<event>
 4    1  0.5060607E-021  0.5000050E+01  0.7818608E-02  0.2136455E+00
        -11   -1    0    0    0    0  0.00000000000E+00  0.00000000000E+00  0.50000499739E+01  0.50000500000E+01  0.51100000000E-03 0.  1.
         11   -1    0    0    0    0 -0.00000000000E+00 -0.00000000000E+00 -0.50000499739E+01  0.50000500000E+01  0.51100000000E-03 0. -1.
         50    1    1    2    0    0  0.19796846366E-01  0.57071611712E-02 -0.86899761415E-02  0.50000500000E+01  0.50000000000E+01 0. -1.
         50    1    1    2    0    0 -0.19796846366E-01 -0.57071611712E-02  0.86899761415E-02  0.50000500000E+01  0.50000000000E+01 0.  1.
</event>
<event>
 4    1  0.5060607E-021  0.5000050E+01  0.7818608E-02  0.2136455E+00
        -11   -1    0    0    0    0  0.00000000000E+00  0.00000000000E+00  0.50000499739E+01  0.50000500000E+01  0.51100000000E-03 0.  1.
         11   -1    0    0    0    0 -0.00000000000E+00 -0.00000000000E+00 -0.50000499739E+01  0.50000500000E+01  0.51100000000E-03 0. -1.
         50    1    1    2    0    0 -0.10004625301E-01  0.14189018431E-01 -0.14091902942E-01  0.50000500000E+01  0.50000000000E+01 0.  1.
         50    1    1    2    0    0  0.10004625301E-01 -0.14189018431E-01  0.14091902942E-01  0.50000500000E+01  0.50000000000E+01 0.  0.
</event>
<event>
 4    1  0.5060607E-021  0.5000050E+01  0.7818608E-02  0.2136455E+00
        -11   -1    0    0    0    0  0.00000000000E+00  0.00000000000E+00  0.50000499739E+01  0.50000500000E+01  0.51100000000E-03 0. -1.
         11   -1    0    0    0    0 -0.00000000000E+00 -0.00000000000E+00 -0.50000499739E+01  0.50000500000E+01  0.51100000000E-03 0.  1.
         50    1    1    2    0    0 -0.14301563787E-01  0.51859348878E-02 -0.16388222984E-01  0.50000500000E+01  0.50000000000E+01 0.  1.
         50    1    1    2    0    0  0.14301563787E-01 -0.51859348878E-02  0.16388222984E-01  0.50000500000E+01  0.50000000000E+01 0. -1.
</event>
<event>
 4    1  0.5060607E-021  0.5000050E+01  0.7818608E-02  0.2136455E+00
        -11   -1    0    0    0    0  0.00000000000E+00  0.00000000000E+00  0.50000499739E+01  0.50000500000E+01  0.51100000000E-03 0.  1.
         11   -1    0    0    0    0 -0.00000000000E+00 -0.00000000000E+00 -0.50000499739E+01  0.50000500000E+01  0.51100000000E-03 0. -1.
         50    1    1    2    0    0  0.20040147005E-01  0.27276743496E-03  0.99156747606E-02  0.50000500000E+01  0.50000000000E+01 0.  1.
         50    1    1    2    0    0 -0.20040147005E-01 -0.27276743496E-03 -0.99156747606E-02  0.50000500000E+01  0.50000000000E+01 0. -1.
</event>
<event>
 4    1  0.5060607E-021  0.5000050E+01  0.7818608E-02  0.2136455E+00
        -11   -1    0    0    0    0  0.00000000000E+00  0.00000000000E+00  0.50000499739E+01  0.50000500000E+01  0.51100000000E-03 0.  1.
         11   -1    0    0    0    0 -0.00000000000E+00 -0.00000000000E+00 -0.50000499739E+01  0.50000500000E+01  0.51100000000E-03 0. -1.
         50    1    1    2    0    0 -0.11990748670E-01  0.18405253781E-01 -0.41798420533E-02  0.50000500000E+01  0.50000000000E+01 0.  0.
         50    1    1    2    0    0  0.11990748670E-01 -0.18405253781E-01  0.41798420533E-02  0.50000500000E+01  0.50000000000E+01 0.  0.
</event>
<event>
 4    1  0.5060607E-021  0.5000050E+01  0.7818608E-02  0.2136455E+00
        -11   -1    0    0    0    0  0.00000000000E+00  0.00000000000E+00  0.50000499739E+01  0.50000500000E+01  0.51100000000E-03 0.  1.
         11   -1    0    0    0    0 -0.00000000000E+00 -0.00000000000E+00 -0.50000499739E+01  0.50000500000E+01  0.51100000000E-03 0. -1.
         50    1    1    2    0    0  0.18237729075E-01 -0.42787292937E-02  0.12209840860E-01  0.50000500000E+01  0.50000000000E+01 0.  1.
         50    1    1    2    0    0 -0.18237729075E-01  0.42787292937E-02 -0.12209840860E-01  0.50000500000E+01  0.50000000000E+01 0.  1.
</event>
<event>
 4    1  0.5060607E-021  0.5000050E+01  0.7818608E-02  0.2136455E+00
        -11   -1    0    0    0    0  0.00000000000E+00  0.00000000000E+00  0.50000499739E+01  0.50000500000E+01  0.51100000000E-03 0. -1.
         11   -1    0    0    0    0 -0.00000000000E+00 -0.00000000000E+00 -0.50000499739E+01  0.50000500000E+01  0.51100000000E-03 0.  1.
         50    1    1    2    0    0  0.22239135105E-02 -0.19833211440E-01 -0.10084663239E-01  0.50000500000E+01  0.50000000000E+01 0. -1.
         50    1    1    2    0    0 -0.22239135105E-02  0.19833211440E-01  0.10084663239E-01  0.50000500000E+01  0.50000000000E+01 0.  1.
</event>
<event>
 4    1  0.5060607E-021  0.5000050E+01  0.7818608E-02  0.2136455E+00
        -11   -1    0    0    0    0  0.00000000000E+00  0.00000000000E+00  0.50000499739E+01  0.50000500000E+01  0.51100000000E-03 0. -1.
         11   -1    0    0    0    0 -0.00000000000E+00 -0.00000000000E+00 -0.50000499739E+01  0.50000500000E+01  0.51100000000E-03 0.  1.
         50    1    1    2    0    0  0.97029772907E-03 -0.76477170496E-02 -0.20989841501E-01  0.50000500000E+01  0.50000000000E+01 0.  1.
         50    1    1    2    0    0 -0.97029772907E-03  0.76477170496E-02  0.20989841501E-01  0.50000500000E+01  0.50000000000E+01 0.  0.
</event>
<event>
 4    1  0.5060607E-021  0.5000050E+01  0.7818608E-02  0.2136455E+00
        -11   -1    0    0    0    0  0.00000000000E+00  0.00000000000E+00  0.50000499739E+01  0.50000500000E+01  0.51100000000E-03 0.  1.
         11   -1    0    0    0    0 -0.00000000000E+00 -0.00000000000E+00 -0.50000499739E+01  0.50000500000E+01  0.51100000000E-03 0. -1.
         50    1    1    2    0    0 -0.13078820400E-02  0.65450451423E-02  0.21341375978E-01  0.50000500000E+01  0.50000000000E+01 0.  0.
         50    1    1    2    0    0  0.13078820400E-02 -0.65450451423E-02 -0.21341375978E-01  0.50000500000E+01  0.50000000000E+01 0. -1.
</event>
<event>
 4    1  0.5060607E-021  0.5000050E+01  0.7818608E-02  0.2136455E+00
        -11   -1    0    0    0    0  0.00000000000E+00  0.00000000000E+00  0.50000499739E+01  0.50000500000E+01  0.51100000000E-03 0.  1.
         11   -1    0    0    0    0 -0.00000000000E+00 -0.00000000000E+00 -0.50000499739E+01  0.50000500000E+01  0.51100000000E-03 0. -1.
         50    1    1    2    0    0  0.96091175928E-02 -0.74308348838E-02  0.18773653135E-01  0.50000500000E+01  0.50000000000E+01 0.  0.
         50    1    1    2    0    0 -0.96091175928E-02  0.74308348838E-02 -0.18773653135E-01  0.50000500000E+01  0.50000000000E+01 0. -1.
</event>
<event>
 4    1  0.5060607E-021  0.5000050E+01  0.7818608E-02  0.2136455E+00
        -11   -1    0    0    0    0  0.00000000000E+00  0.00000000000E+00  0.50000499739E+01  0.50000500000E+01  0.51100000000E-03 0.  1.
         11   -1    0    0    0    0 -0.00000000000E+00 -0.00000000000E+00 -0.50000499739E+01  0.50000500000E+01  0.51100000000E-03 0. -1.
         50    1    1    2    0    0 -0.91583314229E-02 -0.11213104518E-01 -0.17040943419E-01  0.50000500000E+01  0.50000000000E+01 0.  0.
         50    1    1    2    0    0  0.91583314229E-02  0.11213104518E-01  0.17040943419E-01  0.50000500000E+01  0.50000000000E+01 0.  0.
</event>
<event>
 4    1  0.5060607E-021  0.5000050E+01  0.7818608E-02  0.2136455E+00
        -11   -1    0    0    0    0  0.00000000000E+00  0.00000000000E+00  0.50000499739E+01  0.50000500000E+01  0.51100000000E-03 0.  1.
         11   -1    0    0    0    0 -0.00000000000E+00 -0.00000000000E+00 -0.50000499739E+01  0.50000500000E+01  0.51100000000E-03 0. -1.
         50    1    1    2    0    0  0.86226448040E-02 -0.62440212390E-03  0.20621896580E-01  0.50000500000E+01  0.50000000000E+01 0. -1.
         50    1    1    2    0    0 -0.86226448040E-02  0.62440212390E-03 -0.20621896580E-01  0.50000500000E+01  0.50000000000E+01 0.  0.
</event>
<event>
 4    1  0.5060607E-021  0.5000050E+01  0.7818608E-02  0.2136455E+00
        -11   -1    0    0    0    0  0.00000000000E+00  0.00000000000E+00  0.50000499739E+01  0.50000500000E+01  0.51100000000E-03 0.  1.
         11   -1    0    0    0    0 -0.00000000000E+00 -0.00000000000E+00 -0.50000499739E+01  0.50000500000E+01  0.51100000000E-03 0. -1.
         50    1    1    2    0    0  0.97828569382E-02 -0.13034265753E-01  0.15310327443E-01  0.50000500000E+01  0.50000000000E+01 0.  1.
         50    1    1    2    0    0 -0.97828569382E-02  0.13034265753E-01 -0.15310327443E-01  0.50000500000E+01  0.50000000000E+01 0. -1.
</event>
<event>
 4    1  0.5060607E-021  0.5000050E+01  0.7818608E-02  0.2136455E+00
        -11   -1    0    0    0    0  0.00000000000E+00  0.00000000000E+00  0.50000499739E+01  0.50000500000E+01  0.51100000000E-03 0. -1.
         11   -1    0    0    0    0 -0.00000000000E+00 -0.00000000000E+00 -0.50000499739E+01  0.50000500000E+01  0.51100000000E-03 0.  1.
         50    1    1    2    0    0  0.52576353722E-02 -0.98916712526E-02 -0.19352379960E-01  0.50000500000E+01  0.50000000000E+01 0.  0.
         50    1    1    2    0    0 -0.52576353722E-02  0.98916712526E-02  0.19352379960E-01  0.50000500000E+01  0.50000000000E+01 0.  0.
</event>
<event>
 4    1  0.5060607E-021  0.5000050E+01  0.7818608E-02  0.2136455E+00
        -11   -1    0    0    0    0  0.00000000000E+00  0.00000000000E+00  0.50000499739E+01  0.50000500000E+01  0.51100000000E-03 0.  1.
         11   -1    0    0    0    0 -0.00000000000E+00 -0.00000000000E+00 -0.50000499739E+01  0.50000500000E+01  0.51100000000E-03 0. -1.
         50    1    1    2    0    0 -0.82306453223E-04  0.21568597323E-01 -0.58984180226E-02  0.50000500000E+01  0.50000000000E+01 0.  0.
         50    1    1    2    0    0  0.82306453223E-04 -0.21568597323E-01  0.58984180226E-02  0.50000500000E+01  0.50000000000E+01 0. -1.
</event>
<event>
 4    1  0.5060607E-021  0.5000050E+01  0.7818608E-02  0.2136455E+00
        -11   -1    0    0    0    0  0.00000000000E+00  0.00000000000E+00  0.50000499739E+01  0.50000500000E+01  0.51100000000E-03 0.  1.
         11   -1    0    0    0    0 -0.00000000000E+00 -0.00000000000E+00 -0.50000499739E+01  0.50000500000E+01  0.51100000000E-03 0. -1.
         50    1    1    2    0    0  0.63128237240E-02 -0.57124664033E-02 -0.20676520119E-01  0.50000500000E+01  0.50000000000E+01 0. -1.
         50    1    1    2    0    0 -0.63128237240E-02  0.57124664033E-02  0.20676520119E-01  0.50000500000E+01  0.50000000000E+01 0.  0.
</event>
<event>
 4    1  0.5060607E-021  0.5000050E+01  0.7818608E-02  0.2136455E+00
        -11   -1    0    0    0    0  0.00000000000E+00  0.00000000000E+00  0.50000499739E+01  0.50000500000E+01  0.51100000000E-03 0. -1.
         11   -1    0    0    0    0 -0.00000000000E+00 -0.00000000000E+00 -0.50000499739E+01  0.50000500000E+01  0.51100000000E-03 0.  1.
         50    1    1    2    0    0  0.11651822156E-01 -0.70819931457E-02  0.17722384533E-01  0.50000500000E+01  0.50000000000E+01 0. -1.
         50    1    1    2    0    0 -0.11651822156E-01  0.70819931457E-02 -0.17722384533E-01  0.50000500000E+01  0.50000000000E+01 0.  1.
</event>
<event>
 4    1  0.5060607E-021  0.5000050E+01  0.7818608E-02  0.2136455E+00
        -11   -1    0    0    0    0  0.00000000000E+00  0.00000000000E+00  0.50000499739E+01  0.50000500000E+01  0.51100000000E-03 0. -1.
         11   -1    0    0    0    0 -0.00000000000E+00 -0.00000000000E+00 -0.50000499739E+01  0.50000500000E+01  0.51100000000E-03 0.  1.
         50    1    1    2    0    0 -0.43667707145E-02 -0.11435993067E-01  0.18712345553E-01  0.50000500000E+01  0.50000000000E+01 0. -1.
         50    1    1    2    0    0  0.43667707145E-02  0.11435993067E-01 -0.18712345553E-01  0.50000500000E+01  0.50000000000E+01 0.  0.
</event>
<event>
 4    1  0.5060607E-021  0.5000050E+01  0.7818608E-02  0.2136455E+00
        -11   -1    0    0    0    0  0.00000000000E+00  0.00000000000E+00  0.50000499739E+01  0.50000500000E+01  0.51100000000E-03 0.  1.
         11   -1    0    0    0    0 -0.00000000000E+00 -0.00000000000E+00 -0.50000499739E+01  0.50000500000E+01  0.51100000000E-03 0. -1.
         50    1    1    2    0    0  0.12480245776E-01  0.18477420955E-01 -0.16825219826E-02  0.50000500000E+01  0.50000000000E+01 0.  1.
         50    1    1    2    0    0 -0.12480245776E-01 -0.18477420955E-01  0.16825219826E-02  0.50000500000E+01  0.50000000000E+01 0.  0.
</event>
<event>
 4    1  0.5060607E-021  0.5000050E+01  0.7818608E-02  0.2136455E+00
        -11   -1    0    0    0    0  0.00000000000E+00  0.00000000000E+00  0.50000499739E+01  0.50000500000E+01  0.51100000000E-03 0. -1.
         11   -1    0    0    0    0 -0.00000000000E+00 -0.00000000000E+00 -0.50000499739E+01  0.50000500000E+01  0.51100000000E-03 0.  1.
         50    1    1    2    0    0 -0.14935154914E-01 -0.75638532578E-02  0.14823352239E-01  0.50000500000E+01  0.50000000000E+01 0. -1.
         50    1    1    2    0    0  0.14935154914E-01  0.75638532578E-02 -0.14823352239E-01  0.50000500000E+01  0.50000000000E+01 0.  0.
</event>
<event>
 4    1  0.5060607E-021  0.5000050E+01  0.7818608E-02  0.2136455E+00
        -11   -1    0    0    0    0  0.00000000000E+00  0.00000000000E+00  0.50000499739E+01  0.50000500000E+01  0.51100000000E-03 0. -1.
         11   -1    0    0    0    0 -0.00000000000E+00 -0.00000000000E+00 -0.50000499739E+01  0.50000500000E+01  0.51100000000E-03 0.  1.
         50    1    1    2    0    0  0.18832564278E-02  0.16546535231E-01  0.14922064772E-01  0.50000500000E+01  0.50000000000E+01 0. -1.
         50    1    1    2    0    0 -0.18832564278E-02 -0.16546535231E-01 -0.14922064772E-01  0.50000500000E+01  0.50000000000E+01 0.  1.
</event>
<event>
 4    1  0.5060607E-021  0.5000050E+01  0.7818608E-02  0.2136455E+00
        -11   -1    0    0    0    0  0.00000000000E+00  0.00000000000E+00  0.50000499739E+01  0.50000500000E+01  0.51100000000E-03 0. -1.
         11   -1    0    0    0    0 -0.00000000000E+00 -0.00000000000E+00 -0.50000499739E+01  0.50000500000E+01  0.51100000000E-03 0.  1.
         50    1    1    2    0    0  0.21674357912E-01  0.54652757376E-02  0.59621322289E-03  0.50000500000E+01  0.50000000000E+01 0. -1.
         50    1    1    2    0    0 -0.21674357912E-01 -0.54652757376E-02 -0.59621322289E-03  0.50000500000E+01  0.50000000000E+01 0.  0.
</event>
<event>
 4    1  0.5060607E-021  0.5000050E+01  0.7818608E-02  0.2136455E+00
        -11   -1    0    0    0    0  0.00000000000E+00  0.00000000000E+00  0.50000499739E+01  0.50000500000E+01  0.51100000000E-03 0.  1.
         11   -1    0    0    0    0 -0.00000000000E+00 -0.00000000000E+00 -0.50000499739E+01  0.50000500000E+01  0.51100000000E-03 0. -1.
         50    1    1    2    0    0 -0.11261193625E-01  0.18844870964E-01 -0.42495713314E-02  0.50000500000E+01  0.50000000000E+01 0.  0.
         50    1    1    2    0    0  0.11261193625E-01 -0.18844870964E-01  0.42495713314E-02  0.50000500000E+01  0.50000000000E+01 0.  1.
</event>
<event>
 4    1  0.5060607E-021  0.5000050E+01  0.7818608E-02  0.2136455E+00
        -11   -1    0    0    0    0  0.00000000000E+00  0.00000000000E+00  0.50000499739E+01  0.50000500000E+01  0.51100000000E-03 0. -1.
         11   -1    0    0    0    0 -0.00000000000E+00 -0.00000000000E+00 -0.50000499739E+01  0.50000500000E+01  0.51100000000E-03 0.  1.
         50    1    1    2    0    0 -0.38745672819E-02  0.82821965510E-02  0.20405769985E-01  0.50000500000E+01  0.50000000000E+01 0. -1.
         50    1    1    2    0    0  0.38745672819E-02 -0.82821965510E-02 -0.20405769985E-01  0.50000500000E+01  0.50000000000E+01 0.  0.
</event>
<event>
 4    1  0.5060607E-021  0.5000050E+01  0.7818608E-02  0.2136455E+00
        -11   -1    0    0    0    0  0.00000000000E+00  0.00000000000E+00  0.50000499739E+01  0.50000500000E+01  0.51100000000E-03 0. -1.
         11   -1    0    0    0    0 -0.00000000000E+00 -0.00000000000E+00 -0.50000499739E+01  0.50000500000E+01  0.51100000000E-03 0.  1.
         50    1    1    2    0    0 -0.10808969050E-01 -0.89546982635E-03 -0.19554202154E-01  0.50000500000E+01  0.50000000000E+01 0.  0.
         50    1    1    2    0    0  0.10808969050E-01  0.89546982635E-03  0.19554202154E-01  0.50000500000E+01  0.50000000000E+01 0. -1.
</event>
<event>
 4    1  0.5060607E-021  0.5000050E+01  0.7818608E-02  0.2136455E+00
        -11   -1    0    0    0    0  0.00000000000E+00  0.00000000000E+00  0.50000499739E+01  0.50000500000E+01  0.51100000000E-03 0.  1.
         11   -1    0    0    0    0 -0.00000000000E+00 -0.00000000000E+00 -0.50000499739E+01  0.50000500000E+01  0.51100000000E-03 0. -1.
         50    1    1    2    0    0  0.21191805850E-01 -0.69502444790E-02  0.16136810382E-02  0.50000500000E+01  0.50000000000E+01 0. -1.
         50    1    1    2    0    0 -0.21191805850E-01  0.69502444790E-02 -0.16136810382E-02  0.50000500000E+01  0.50000000000E+01 0.  0.
</event>
<event>
 4    1  0.5060607E-021  0.5000050E+01  0.7818608E-02  0.2136455E+00
        -11   -1    0    0    0    0  0.00000000000E+00  0.00000000000E+00  0.50000499739E+01  0.50000500000E+01  0.51100000000E-03 0.  1.
         11   -1    0    0    0    0 -0.00000000000E+00 -0.00000000000E+00 -0.50000499739E+01  0.50000500000E+01  0.51100000000E-03 0. -1.
         50    1    1    2    0    0 -0.18023055044E-01  0.51282533369E-03  0.13225316520E-01  0.50000500000E+01  0.50000000000E+01 0.  1.
         50    1    1    2    0    0  0.18023055044E-01 -0.51282533369E-03 -0.13225316520E-01  0.50000500000E+01  0.50000000000E+01 0.  1.
</event>
<event>
 4    1  0.5060607E-021  0.5000050E+01  0.7818608E-02  0.2136455E+00
        -11   -1    0    0    0    0  0.00000000000E+00  0.00000000000E+00  0.50000499739E+01  0.50000500000E+01  0.51100000000E-03 0.  1.
         11   -1    0    0    0    0 -0.00000000000E+00 -0.00000000000E+00 -0.50000499739E+01  0.50000500000E+01  0.51100000000E-03 0. -1.
         50    1    1    2    0    0  0.72195397893E-02  0.21144790583E-01 -0.88236977379E-03  0.50000500000E+01  0.50000000000E+01 0.  1.
         50    1    1    2    0    0 -0.72195397893E-02 -0.21144790583E-01  0.88236977379E-03  0.50000500000E+01  0.50000000000E+01 0. -1.
</event>
<event>
 4    1  0.5060607E-021  0.5000050E+01  0.7818608E-02  0.2136455E+00
        -11   -1    0    0    0    0  0.00000000000E+00  0.00000000000E+00  0.50000499739E+01  0.50000500000E+01  0.51100000000E-03 0.  1.
         11   -1    0    0    0    0 -0.00000000000E+00 -0.00000000000E+00 -0.50000499739E+01  0.50000500000E+01  0.51100000000E-03 0. -1.
         50    1    1    2    0    0 -0.10819525909E-02 -0.22299845370E-01 -0.12444979153E-02  0.50000500000E+01  0.50000000000E+01 0. -1.
         50    1    1    2    0    0  0.10819525909E-02  0.22299845370E-01  0.12444979153E-02  0.50000500000E+01  0.50000000000E+01 0.  0.
</event>
<event>
 4    1  0.5060607E-021  0.5000050E+01  0.7818608E-02  0.2136455E+00
        -11   -1    0    0    0    0  0.00000000000E+00  0.00000000000E+00  0.50000499739E+01  0.50000500000E+01  0.51100000000E-03 0. -1.
         11   -1    0    0    0    0 -0.00000000000E+00 -0.00000000000E+00 -0.50000499739E+01  0.50000500000E+01  0.51100000000E-03 0.  1.
         50    1    1    2    0    0 -0.90459560363E-02 -0.16943823562E-01 -0.11449018408E-01  0.50000500000E+01  0.50000000000E+01 0.  0.
         50    1    1    2    0    0  0.90459560363E-02  0.16943823562E-01  0.11449018408E-01  0.50000500000E+01  0.50000000000E+01 0.  1.
</event>
<event>
 4    1  0.5060607E-021  0.5000050E+01  0.7818608E-02  0.2136455E+00
        -11   -1    0    0    0    0  0.00000000000E+00  0.00000000000E+00  0.50000499739E+01  0.50000500000E+01  0.51100000000E-03 0.  1.
         11   -1    0    0    0    0 -0.00000000000E+00 -0.00000000000E+00 -0.50000499739E+01  0.50000500000E+01  0.51100000000E-03 0. -1.
         50    1    1    2    0    0  0.13011559416E-01  0.13253748834E-01 -0.12451504464E-01  0.50000500000E+01  0.50000000000E+01 0.  1.
         50    1    1    2    0    0 -0.13011559416E-01 -0.13253748834E-01  0.12451504464E-01  0.50000500000E+01  0.50000000000E+01 0.  1.
</event>
<event>
 4    1  0.5060607E-021  0.5000050E+01  0.7818608E-02  0.2136455E+00
        -11   -1    0    0    0    0  0.00000000000E+00  0.00000000000E+00  0.50000499739E+01  0.50000500000E+01  0.51100000000E-03 0.  1.
         11   -1    0    0    0    0 -0.00000000000E+00 -0.00000000000E+00 -0.50000499739E+01  0.50000500000E+01  0.51100000000E-03 0. -1.
         50    1    1    2    0    0 -0.77286270893E-02  0.38248434060E-02 -0.20631078407E-01  0.50000500000E+01  0.50000000000E+01 0.  0.
         50    1    1    2    0    0  0.77286270893E-02 -0.38248434060E-02  0.20631078407E-01  0.50000500000E+01  0.50000000000E+01 0.  1.
</event>
<event>
 4    1  0.5060607E-021  0.5000050E+01  0.7818608E-02  0.2136455E+00
        -11   -1    0    0    0    0  0.00000000000E+00  0.00000000000E+00  0.50000499739E+01  0.50000500000E+01  0.51100000000E-03 0.  1.
         11   -1    0    0    0    0 -0.00000000000E+00 -0.00000000000E+00 -0.50000499739E+01  0.50000500000E+01  0.51100000000E-03 0. -1.
         50    1    1    2    0    0  0.13076116291E-01  0.41790320269E-02  0.17650874598E-01  0.50000500000E+01  0.50000000000E+01 0.  0.
         50    1    1    2    0    0 -0.13076116291E-01 -0.41790320269E-02 -0.17650874598E-01  0.50000500000E+01  0.50000000000E+01 0. -1.
</event>
<event>
 4    1  0.5060607E-021  0.5000050E+01  0.7818608E-02  0.2136455E+00
        -11   -1    0    0    0    0  0.00000000000E+00  0.00000000000E+00  0.50000499739E+01  0.50000500000E+01  0.51100000000E-03 0. -1.
         11   -1    0    0    0    0 -0.00000000000E+00 -0.00000000000E+00 -0.50000499739E+01  0.50000500000E+01  0.51100000000E-03 0.  1.
         50    1    1    2    0    0  0.21188714894E-01 -0.62606788375E-02 -0.34416219489E-02  0.50000500000E+01  0.50000000000E+01 0.  1.
         50    1    1    2    0    0 -0.21188714894E-01  0.62606788375E-02  0.34416219489E-02  0.50000500000E+01  0.50000000000E+01 0.  0.
</event>
<event>
 4    1  0.5060607E-021  0.5000050E+01  0.7818608E-02  0.2136455E+00
        -11   -1    0    0    0    0  0.00000000000E+00  0.00000000000E+00  0.50000499739E+01  0.50000500000E+01  0.51100000000E-03 0. -1.
         11   -1    0    0    0    0 -0.00000000000E+00 -0.00000000000E+00 -0.50000499739E+01  0.50000500000E+01  0.51100000000E-03 0.  1.
         50    1    1    2    0    0  0.20278933512E-01 -0.84659184052E-02 -0.41346802987E-02  0.50000500000E+01  0.50000000000E+01 0.  0.
         50    1    1    2    0    0 -0.20278933512E-01  0.84659184052E-02  0.41346802987E-02  0.50000500000E+01  0.50000000000E+01 0. -1.
</event>
<event>
 4    1  0.5060607E-021  0.5000050E+01  0.7818608E-02  0.2136455E+00
        -11   -1    0    0    0    0  0.00000000000E+00  0.00000000000E+00  0.50000499739E+01  0.50000500000E+01  0.51100000000E-03 0. -1.
         11   -1    0    0    0    0 -0.00000000000E+00 -0.00000000000E+00 -0.50000499739E+01  0.50000500000E+01  0.51100000000E-03 0.  1.
         50    1    1    2    0    0 -0.13416192132E-01 -0.15050464640E-01  0.96691159250E-02  0.50000500000E+01  0.50000000000E+01 0. -1.
         50    1    1    2    0    0  0.13416192132E-01  0.15050464640E-01 -0.96691159250E-02  0.50000500000E+01  0.50000000000E+01 0.  1.
</event>
<event>
 4    1  0.5060607E-021  0.5000050E+01  0.7818608E-02  0.2136455E+00
        -11   -1    0    0    0    0  0.00000000000E+00  0.00000000000E+00  0.50000499739E+01  0.50000500000E+01  0.51100000000E-03 0.  1.
         11   -1    0    0    0    0 -0.00000000000E+00 -0.00000000000E+00 -0.50000499739E+01  0.50000500000E+01  0.51100000000E-03 0. -1.
         50    1    1    2    0    0  0.16421527943E-01  0.70759775925E-02 -0.13426334612E-01  0.50000500000E+01  0.50000000000E+01 0.  0.
         50    1    1    2    0    0 -0.16421527943E-01 -0.70759775925E-02  0.13426334612E-01  0.50000500000E+01  0.50000000000E+01 0.  0.
</event>
<event>
 4    1  0.5060607E-021  0.5000050E+01  0.7818608E-02  0.2136455E+00
        -11   -1    0    0    0    0  0.00000000000E+00  0.00000000000E+00  0.50000499739E+01  0.50000500000E+01  0.51100000000E-03 0.  1.
         11   -1    0    0    0    0 -0.00000000000E+00 -0.00000000000E+00 -0.50000499739E+01  0.50000500000E+01  0.51100000000E-03 0. -1.
         50    1    1    2    0    0  0.52880293272E-02  0.20698627641E-01  0.66034884433E-02  0.50000500000E+01  0.50000000000E+01 0.  1.
         50    1    1    2    0    0 -0.52880293272E-02 -0.20698627641E-01 -0.66034884433E-02  0.50000500000E+01  0.50000000000E+01 0. -1.
</event>
<event>
 4    1  0.5060607E-021  0.5000050E+01  0.7818608E-02  0.2136455E+00
        -11   -1    0    0    0    0  0.00000000000E+00  0.00000000000E+00  0.50000499739E+01  0.50000500000E+01  0.51100000000E-03 0.  1.
         11   -1    0    0    0    0 -0.00000000000E+00 -0.00000000000E+00 -0.50000499739E+01  0.50000500000E+01  0.51100000000E-03 0. -1.
         50    1    1    2    0    0  0.15842532972E-01 -0.15677136278E-01 -0.18011238582E-02  0.50000500000E+01  0.50000000000E+01 0.  0.
         50    1    1    2    0    0 -0.15842532972E-01  0.15677136278E-01  0.18011238582E-02  0.50000500000E+01  0.50000000000E+01 0. -1.
</event>
<event>
 4    1  0.5060607E-021  0.5000050E+01  0.7818608E-02  0.2136455E+00
        -11   -1    0    0    0    0  0.00000000000E+00  0.00000000000E+00  0.50000499739E+01  0.50000500000E+01  0.51100000000E-03 0. -1.
         11   -1    0    0    0    0 -0.00000000000E+00 -0.00000000000E+00 -0.50000499739E+01  0.50000500000E+01  0.51100000000E-03 0.  1.
         50    1    1    2    0    0 -0.28209111911E-02  0.16974724427E-01  0.14279484959E-01  0.50000500000E+01  0.50000000000E+01 0.  0.
         50    1    1    2    0    0  0.28209111911E-02 -0.16974724427E-01 -0.14279484959E-01  0.50000500000E+01  0.50000000000E+01 0. -1.
</event>
<event>
 4    1  0.5060607E-021  0.5000050E+01  0.7818608E-02  0.2136455E+00
        -11   -1    0    0    0    0  0.00000000000E+00  0.00000000000E+00  0.50000499739E+01  0.50000500000E+01  0.51100000000E-03 0. -1.
         11   -1    0    0    0    0 -0.00000000000E+00 -0.00000000000E+00 -0.50000499739E+01  0.50000500000E+01  0.51100000000E-03 0.  1.
         50    1    1    2    0    0 -0.12652444566E-01  0.15713915228E-01  0.96431848847E-02  0.50000500000E+01  0.50000000000E+01 0.  0.
         50    1    1    2    0    0  0.12652444566E-01 -0.15713915228E-01 -0.96431848847E-02  0.50000500000E+01  0.50000000000E+01 0. -1.
</event>
<event>
 4    1  0.5060607E-021  0.5000050E+01  0.7818608E-02  0.2136455E+00
        -11   -1    0    0    0    0  0.00000000000E+00  0.00000000000E+00  0.50000499739E+01  0.50000500000E+01  0.51100000000E-03 0.  1.
         11   -1    0    0    0    0 -0.00000000000E+00 -0.00000000000E+00 -0.50000499739E+01  0.50000500000E+01  0.51100000000E-03 0. -1.
         50    1    1    2    0    0 -0.64701801855E-02 -0.20399192400E-01 -0.64816832540E-02  0.50000500000E+01  0.50000000000E+01 0.  0.
         50    1    1    2    0    0  0.64701801855E-02  0.20399192400E-01  0.64816832540E-02  0.50000500000E+01  0.50000000000E+01 0. -1.
</event>
<event>
 4    1  0.5060607E-021  0.5000050E+01  0.7818608E-02  0.2136455E+00
        -11   -1    0    0    0    0  0.00000000000E+00  0.00000000000E+00  0.50000499739E+01  0.50000500000E+01  0.51100000000E-03 0.  1.
         11   -1    0    0    0    0 -0.00000000000E+00 -0.00000000000E+00 -0.50000499739E+01  0.50000500000E+01  0.51100000000E-03 0. -1.
         50    1    1    2    0    0  0.14232989282E-01  0.11191511102E-01 -0.13121531746E-01  0.50000500000E+01  0.50000000000E+01 0. -1.
         50    1    1    2    0    0 -0.14232989282E-01 -0.11191511102E-01  0.13121531746E-01  0.50000500000E+01  0.50000000000E+01 0.  1.
</event>
<event>
 4    1  0.5060607E-021  0.5000050E+01  0.7818608E-02  0.2136455E+00
        -11   -1    0    0    0    0  0.00000000000E+00  0.00000000000E+00  0.50000499739E+01  0.50000500000E+01  0.51100000000E-03 0.  1.
         11   -1    0    0    0    0 -0.00000000000E+00 -0.00000000000E+00 -0.50000499739E+01  0.50000500000E+01  0.51100000000E-03 0. -1.
         50    1    1    2    0    0 -0.82845399544E-02  0.15208958287E-01 -0.14144132549E-01  0.50000500000E+01  0.50000000000E+01 0. -1.
         50    1    1    2    0    0  0.82845399544E-02 -0.15208958287E-01  0.14144132549E-01  0.50000500000E+01  0.50000000000E+01 0.  1.
</event>
<event>
 4    1  0.5060607E-021  0.5000050E+01  0.7818608E-02  0.2136455E+00
        -11   -1    0    0    0    0  0.00000000000E+00  0.00000000000E+00  0.50000499739E+01  0.50000500000E+01  0.51100000000E-03 0.  1.
         11   -1    0    0    0    0 -0.00000000000E+00 -0.00000000000E+00 -0.50000499739E+01  0.50000500000E+01  0.51100000000E-03 0. -1.
         50    1    1    2    0    0  0.18458466339E-03 -0.20049285503E-01 -0.98992211470E-02  0.50000500000E+01  0.50000000000E+01 0.  1.
         50    1    1    2    0    0 -0.18458466339E-03  0.20049285503E-01  0.98992211470E-02  0.50000500000E+01  0.50000000000E+01 0.  0.
</event>
<event>
 4    1  0.5060607E-021  0.5000050E+01  0.7818608E-02  0.2136455E+00
        -11   -1    0    0    0    0  0.00000000000E+00  0.00000000000E+00  0.50000499739E+01  0.50000500000E+01  0.51100000000E-03 0. -1.
         11   -1    0    0    0    0 -0.00000000000E+00 -0.00000000000E+00 -0.50000499739E+01  0.50000500000E+01  0.51100000000E-03 0.  1.
         50    1    1    2    0    0  0.66749459489E-02  0.75235342723E-02  0.19971079806E-01  0.50000500000E+01  0.50000000000E+01 0.  0.
         50    1    1    2    0    0 -0.66749459489E-02 -0.75235342723E-02 -0.19971079806E-01  0.50000500000E+01  0.50000000000E+01 0.  1.
</event>
<event>
 4    1  0.5060607E-021  0.5000050E+01  0.7818608E-02  0.2136455E+00
        -11   -1    0    0    0    0  0.00000000000E+00  0.00000000000E+00  0.50000499739E+01  0.50000500000E+01  0.51100000000E-03 0.  1.
         11   -1    0    0    0    0 -0.00000000000E+00 -0.00000000000E+00 -0.50000499739E+01  0.50000500000E+01  0.51100000000E-03 0. -1.
         50    1    1    2    0    0 -0.16559932275E-01  0.84023902239E-02 -0.12456764490E-01  0.50000500000E+01  0.50000000000E+01 0.  0.
         50    1    1    2    0    0  0.16559932275E-01 -0.84023902239E-02  0.12456764490E-01  0.50000500000E+01  0.50000000000E+01 0.  0.
</event>
<event>
 4    1  0.5060607E-021  0.5000050E+01  0.7818608E-02  0.2136455E+00
        -11   -1    0    0    0    0  0.00000000000E+00  0.00000000000E+00  0.50000499739E+01  0.50000500000E+01  0.51100000000E-03 0.  1.
         11   -1    0    0    0    0 -0.00000000000E+00 -0.00000000000E+00 -0.50000499739E+01  0.50000500000E+01  0.51100000000E-03 0. -1.
         50    1    1    2    0    0 -0.96051335563E-02 -0.17142506850E-01 -0.10671380803E-01  0.50000500000E+01  0.50000000000E+01 0. -1.
         50    1    1    2    0    0  0.96051335563E-02  0.17142506850E-01  0.10671380803E-01  0.50000500000E+01  0.50000000000E+01 0.  1.
</event>
<event>
 4    1  0.5060607E-021  0.5000050E+01  0.7818608E-02  0.2136455E+00
        -11   -1    0    0    0    0  0.00000000000E+00  0.00000000000E+00  0.50000499739E+01  0.50000500000E+01  0.51100000000E-03 0.  1.
         11   -1    0    0    0    0 -0.00000000000E+00 -0.00000000000E+00 -0.50000499739E+01  0.50000500000E+01  0.51100000000E-03 0. -1.
         50    1    1    2    0    0 -0.35056954360E-02 -0.22033769819E-01  0.14918401632E-02  0.50000500000E+01  0.50000000000E+01 0. -1.
         50    1    1    2    0    0  0.35056954360E-02  0.22033769819E-01 -0.14918401632E-02  0.50000500000E+01  0.50000000000E+01 0.  0.
</event>
<event>
 4    1  0.5060607E-021  0.5000050E+01  0.7818608E-02  0.2136455E+00
        -11   -1    0    0    0    0  0.00000000000E+00  0.00000000000E+00  0.50000499739E+01  0.50000500000E+01  0.51100000000E-03 0.  1.
         11   -1    0    0    0    0 -0.00000000000E+00 -0.00000000000E+00 -0.50000499739E+01  0.50000500000E+01  0.51100000000E-03 0. -1.
         50    1    1    2    0    0  0.17080637772E-01  0.10891997783E-01 -0.94667152485E-02  0.50000500000E+01  0.50000000000E+01 0.  1.
         50    1    1    2    0    0 -0.17080637772E-01 -0.10891997783E-01  0.94667152485E-02  0.50000500000E+01  0.50000000000E+01 0.  1.
</event>
<event>
 4    1  0.5060607E-021  0.5000050E+01  0.7818608E-02  0.2136455E+00
        -11   -1    0    0    0    0  0.00000000000E+00  0.00000000000E+00  0.50000499739E+01  0.50000500000E+01  0.51100000000E-03 0.  1.
         11   -1    0    0    0    0 -0.00000000000E+00 -0.00000000000E+00 -0.50000499739E+01  0.50000500000E+01  0.51100000000E-03 0. -1.
         50    1    1    2    0    0  0.34335374839E-02 -0.21296030019E-01  0.58900276547E-02  0.50000500000E+01  0.50000000000E+01 0.  0.
         50    1    1    2    0    0 -0.34335374839E-02  0.21296030019E-01 -0.58900276547E-02  0.50000500000E+01  0.50000000000E+01 0.  1.
</event>
<event>
 4    1  0.5060607E-021  0.5000050E+01  0.7818608E-02  0.2136455E+00
        -11   -1    0    0    0    0  0.00000000000E+00  0.00000000000E+00  0.50000499739E+01  0.50000500000E+01  0.51100000000E-03 0.  1.
         11   -1    0    0    0    0 -0.00000000000E+00 -0.00000000000E+00 -0.50000499739E+01  0.50000500000E+01  0.51100000000E-03 0. -1.
         50    1    1    2    0    0 -0.89163092904E-02 -0.16987868221E-01  0.11485393417E-01  0.50000500000E+01  0.50000000000E+01 0.  0.
         50    1    1    2    0    0  0.89163092904E-02  0.16987868221E-01 -0.11485393417E-01  0.50000500000E+01  0.50000000000E+01 0.  1.
</event>
<event>
 4    1  0.5060607E-021  0.5000050E+01  0.7818608E-02  0.2136455E+00
        -11   -1    0    0    0    0  0.00000000000E+00  0.00000000000E+00  0.50000499739E+01  0.50000500000E+01  0.51100000000E-03 0. -1.
         11   -1    0    0    0    0 -0.00000000000E+00 -0.00000000000E+00 -0.50000499739E+01  0.50000500000E+01  0.51100000000E-03 0.  1.
         50    1    1    2    0    0 -0.21248195541E-01 -0.24608945372E-02  0.65161863341E-02  0.50000500000E+01  0.50000000000E+01 0. -1.
         50    1    1    2    0    0  0.21248195541E-01  0.24608945372E-02 -0.65161863341E-02  0.50000500000E+01  0.50000000000E+01 0.  1.
</event>
<event>
 4    1  0.5060607E-021  0.5000050E+01  0.7818608E-02  0.2136455E+00
        -11   -1    0    0    0    0  0.00000000000E+00  0.00000000000E+00  0.50000499739E+01  0.50000500000E+01  0.51100000000E-03 0. -1.
         11   -1    0    0    0    0 -0.00000000000E+00 -0.00000000000E+00 -0.50000499739E+01  0.50000500000E+01  0.51100000000E-03 0.  1.
         50    1    1    2    0    0  0.84673905748E-02 -0.92575723430E-02 -0.18509542165E-01  0.50000500000E+01  0.50000000000E+01 0.  0.
         50    1    1    2    0    0 -0.84673905748E-02  0.92575723430E-02  0.18509542165E-01  0.50000500000E+01  0.50000000000E+01 0. -1.
</event>
<event>
 4    1  0.5060607E-021  0.5000050E+01  0.7818608E-02  0.2136455E+00
        -11   -1    0    0    0    0  0.00000000000E+00  0.00000000000E+00  0.50000499739E+01  0.50000500000E+01  0.51100000000E-03 0.  1.
         11   -1    0    0    0    0 -0.00000000000E+00 -0.00000000000E+00 -0.50000499739E+01  0.50000500000E+01  0.51100000000E-03 0. -1.
         50    1    1    2    0    0  0.12880428962E-01 -0.19087809325E-02 -0.18178382907E-01  0.50000500000E+01  0.50000000000E+01 0.  0.
         50    1    1    2    0    0 -0.12880428962E-01  0.19087809325E-02  0.18178382907E-01  0.50000500000E+01  0.50000000000E+01 0.  0.
</event>
<event>
 4    1  0.5060607E-021  0.5000050E+01  0.7818608E-02  0.2136455E+00
        -11   -1    0    0    0    0  0.00000000000E+00  0.00000000000E+00  0.50000499739E+01  0.50000500000E+01  0.51100000000E-03 0.  1.
         11   -1    0    0    0    0 -0.00000000000E+00 -0.00000000000E+00 -0.50000499739E+01  0.50000500000E+01  0.51100000000E-03 0. -1.
         50    1    1    2    0    0 -0.33197994612E-02  0.19526251737E-01  0.10378194671E-01  0.50000500000E+01  0.50000000000E+01 0. -1.
         50    1    1    2    0    0  0.33197994612E-02 -0.19526251737E-01 -0.10378194671E-01  0.50000500000E+01  0.50000000000E+01 0.  0.
</event>
<event>
 4    1  0.5060607E-021  0.5000050E+01  0.7818608E-02  0.2136455E+00
        -11   -1    0    0    0    0  0.00000000000E+00  0.00000000000E+00  0.50000499739E+01  0.50000500000E+01  0.51100000000E-03 0. -1.
         11   -1    0    0    0    0 -0.00000000000E+00 -0.00000000000E+00 -0.50000499739E+01  0.50000500000E+01  0.51100000000E-03 0.  1.
         50    1    1    2    0    0 -0.11101802155E-01 -0.15332241217E-01 -0.11902725242E-01  0.50000500000E+01  0.50000000000E+01 0.  0.
         50    1    1    2    0    0  0.11101802155E-01  0.15332241217E-01  0.11902725242E-01  0.50000500000E+01  0.50000000000E+01 0.  0.
</event>
<event>
 4    1  0.5060607E-021  0.5000050E+01  0.7818608E-02  0.2136455E+00
        -11   -1    0    0    0    0  0.00000000000E+00  0.00000000000E+00  0.50000499739E+01  0.50000500000E+01  0.51100000000E-03 0.  1.
         11   -1    0    0    0    0 -0.00000000000E+00 -0.00000000000E+00 -0.50000499739E+01  0.50000500000E+01  0.51100000000E-03 0. -1.
         50    1    1    2    0    0 -0.15685736383E-01  0.59714273609E-02 -0.14775054294E-01  0.50000500000E+01  0.50000000000E+01 0. -1.
         50    1    1    2    0    0  0.15685736383E-01 -0.59714273609E-02  0.14775054294E-01  0.50000500000E+01  0.50000000000E+01 0.  1.
</event>
<event>
 4    1  0.5060607E-021  0.5000050E+01  0.7818608E-02  0.2136455E+00
        -11   -1    0    0    0    0  0.00000000000E+00  0.00000000000E+00  0.50000499739E+01  0.50000500000E+01  0.51100000000E-03 0. -1.
         11   -1    0    0    0    0 -0.00000000000E+00 -0.00000000000E+00 -0.50000499739E+01  0.50000500000E+01  0.51100000000E-03 0.  1.
         50    1    1    2    0    0  0.20679009756E-01  0.11066322127E-03  0.85069859027E-02  0.50000500000E+01  0.50000000000E+01 0.  1.
         50    1    1    2    0    0 -0.20679009756E-01 -0.11066322127E-03 -0.85069859027E-02  0.50000500000E+01  0.50000000000E+01 0.  1.
</event>
<event>
 4    1  0.5060607E-021  0.5000050E+01  0.7818608E-02  0.2136455E+00
        -11   -1    0    0    0    0  0.00000000000E+00  0.00000000000E+00  0.50000499739E+01  0.50000500000E+01  0.51100000000E-03 0.  1.
         11   -1    0    0    0    0 -0.00000000000E+00 -0.00000000000E+00 -0.50000499739E+01  0.50000500000E+01  0.51100000000E-03 0. -1.
         50    1    1    2    0    0 -0.10195233589E-01  0.19854290443E-01 -0.13663319726E-02  0.50000500000E+01  0.50000000000E+01 0.  0.
         50    1    1    2    0    0  0.10195233589E-01 -0.19854290443E-01  0.13663319726E-02  0.50000500000E+01  0.50000000000E+01 0. -1.
</event>
<event>
 4    1  0.5060607E-021  0.5000050E+01  0.7818608E-02  0.2136455E+00
        -11   -1    0    0    0    0  0.00000000000E+00  0.00000000000E+00  0.50000499739E+01  0.50000500000E+01  0.51100000000E-03 0. -1.
         11   -1    0    0    0    0 -0.00000000000E+00 -0.00000000000E+00 -0.50000499739E+01  0.50000500000E+01  0.51100000000E-03 0.  1.
         50    1    1    2    0    0 -0.12042885799E-01  0.18779764392E-01  0.15138860700E-02  0.50000500000E+01  0.50000000000E+01 0. -1.
         50    1    1    2    0    0  0.12042885799E-01 -0.18779764392E-01 -0.15138860700E-02  0.50000500000E+01  0.50000000000E+01 0.  1.
</event>
<event>
 4    1  0.5060607E-021  0.5000050E+01  0.7818608E-02  0.2136455E+00
        -11   -1    0    0    0    0  0.00000000000E+00  0.00000000000E+00  0.50000499739E+01  0.50000500000E+01  0.51100000000E-03 0.  1.
         11   -1    0    0    0    0 -0.00000000000E+00 -0.00000000000E+00 -0.50000499739E+01  0.50000500000E+01  0.51100000000E-03 0. -1.
         50    1    1    2    0    0  0.21114032089E-01 -0.25758592116E-02  0.68967454850E-02  0.50000500000E+01  0.50000000000E+01 0.  1.
         50    1    1    2    0    0 -0.21114032089E-01  0.25758592116E-02 -0.68967454850E-02  0.50000500000E+01  0.50000000000E+01 0. -1.
</event>
<event>
 4    1  0.5060607E-021  0.5000050E+01  0.7818608E-02  0.2136455E+00
        -11   -1    0    0    0    0  0.00000000000E+00  0.00000000000E+00  0.50000499739E+01  0.50000500000E+01  0.51100000000E-03 0.  1.
         11   -1    0    0    0    0 -0.00000000000E+00 -0.00000000000E+00 -0.50000499739E+01  0.50000500000E+01  0.51100000000E-03 0. -1.
         50    1    1    2    0    0  0.29281258475E-02 -0.22064511090E-01  0.21414783129E-02  0.50000500000E+01  0.50000000000E+01 0.  1.
         50    1    1    2    0    0 -0.29281258475E-02  0.22064511090E-01 -0.21414783129E-02  0.50000500000E+01  0.50000000000E+01 0. -1.
</event>
<event>
 4    1  0.5060607E-021  0.5000050E+01  0.7818608E-02  0.2136455E+00
        -11   -1    0    0    0    0  0.00000000000E+00  0.00000000000E+00  0.50000499739E+01  0.50000500000E+01  0.51100000000E-03 0.  1.
         11   -1    0    0    0    0 -0.00000000000E+00 -0.00000000000E+00 -0.50000499739E+01  0.50000500000E+01  0.51100000000E-03 0. -1.
         50    1    1    2    0    0  0.69605397093E-02 -0.69746587300E-02  0.20072556453E-01  0.50000500000E+01  0.50000000000E+01 0.  0.
         50    1    1    2    0    0 -0.69605397093E-02  0.69746587300E-02 -0.20072556453E-01  0.50000500000E+01  0.50000000000E+01 0.  0.
</event>
<event>
 4    1  0.5060607E-021  0.5000050E+01  0.7818608E-02  0.2136455E+00
        -11   -1    0    0    0    0  0.00000000000E+00  0.00000000000E+00  0.50000499739E+01  0.50000500000E+01  0.51100000000E-03 0. -1.
         11   -1    0    0    0    0 -0.00000000000E+00 -0.00000000000E+00 -0.50000499739E+01  0.50000500000E+01  0.51100000000E-03 0.  1.
         50    1    1    2    0    0 -0.14739167960E-01 -0.52395184195E-02  0.15978325149E-01  0.50000500000E+01  0.50000000000E+01 0.  0.
         50    1    1    2    0    0  0.14739167960E-01  0.52395184195E-02 -0.15978325149E-01  0.50000500000E+01  0.50000000000E+01 0.  1.
</event>
<event>
 4    1  0.5060607E-021  0.5000050E+01  0.7818608E-02  0.2136455E+00
        -11   -1    0    0    0    0  0.00000000000E+00  0.00000000000E+00  0.50000499739E+01  0.50000500000E+01  0.51100000000E-03 0. -1.
         11   -1    0    0    0    0 -0.00000000000E+00 -0.00000000000E+00 -0.50000499739E+01  0.50000500000E+01  0.51100000000E-03 0.  1.
         50    1    1    2    0    0  0.22358418710E-01  0.74508775671E-04  0.31314730360E-03  0.50000500000E+01  0.50000000000E+01 0. -1.
         50    1    1    2    0    0 -0.22358418710E-01 -0.74508775671E-04 -0.31314730360E-03  0.50000500000E+01  0.50000000000E+01 0.  1.
</event>
<event>
 4    1  0.5060607E-021  0.5000050E+01  0.7818608E-02  0.2136455E+00
        -11   -1    0    0    0    0  0.00000000000E+00  0.00000000000E+00  0.50000499739E+01  0.50000500000E+01  0.51100000000E-03 0. -1.
         11   -1    0    0    0    0 -0.00000000000E+00 -0.00000000000E+00 -0.50000499739E+01  0.50000500000E+01  0.51100000000E-03 0.  1.
         50    1    1    2    0    0 -0.40297495177E-02  0.18998507666E-01 -0.11082433184E-01  0.50000500000E+01  0.50000000000E+01 0.  0.
         50    1    1    2    0    0  0.40297495177E-02 -0.18998507666E-01  0.11082433184E-01  0.50000500000E+01  0.50000000000E+01 0.  1.
</event>
<event>
 4    1  0.5060607E-021  0.5000050E+01  0.7818608E-02  0.2136455E+00
        -11   -1    0    0    0    0  0.00000000000E+00  0.00000000000E+00  0.50000499739E+01  0.50000500000E+01  0.51100000000E-03 0.  1.
         11   -1    0    0    0    0 -0.00000000000E+00 -0.00000000000E+00 -0.50000499739E+01  0.50000500000E+01  0.51100000000E-03 0. -1.
         50    1    1    2    0    0  0.20510417525E-02  0.57813696568E-02 -0.21502825224E-01  0.50000500000E+01  0.50000000000E+01 0.  0.
         50    1    1    2    0    0 -0.20510417525E-02 -0.57813696568E-02  0.21502825224E-01  0.50000500000E+01  0.50000000000E+01 0.  1.
</event>
<event>
 4    1  0.5060607E-021  0.5000050E+01  0.7818608E-02  0.2136455E+00
        -11   -1    0    0    0    0  0.00000000000E+00  0.00000000000E+00  0.50000499739E+01  0.50000500000E+01  0.51100000000E-03 0.  1.
         11   -1    0    0    0    0 -0.00000000000E+00 -0.00000000000E+00 -0.50000499739E+01  0.50000500000E+01  0.51100000000E-03 0. -1.
         50    1    1    2    0    0 -0.19980145230E-01  0.60110314436E-02 -0.80413803272E-02  0.50000500000E+01  0.50000000000E+01 0.  0.
         50    1    1    2    0    0  0.19980145230E-01 -0.60110314436E-02  0.80413803272E-02  0.50000500000E+01  0.50000000000E+01 0.  0.
</event>
<event>
 4    1  0.5060607E-021  0.5000050E+01  0.7818608E-02  0.2136455E+00
        -11   -1    0    0    0    0  0.00000000000E+00  0.00000000000E+00  0.50000499739E+01  0.50000500000E+01  0.51100000000E-03 0.  1.
         11   -1    0    0    0    0 -0.00000000000E+00 -0.00000000000E+00 -0.50000499739E+01  0.50000500000E+01  0.51100000000E-03 0. -1.
         50    1    1    2    0    0 -0.98506573115E-02  0.15887338464E-01 -0.12270270049E-01  0.50000500000E+01  0.50000000000E+01 0. -1.
         50    1    1    2    0    0  0.98506573115E-02 -0.15887338464E-01  0.12270270049E-01  0.50000500000E+01  0.50000000000E+01 0.  1.
</event>
<event>
 4    1  0.5060607E-021  0.5000050E+01  0.7818608E-02  0.2136455E+00
        -11   -1    0    0    0    0  0.00000000000E+00  0.00000000000E+00  0.50000499739E+01  0.50000500000E+01  0.51100000000E-03 0. -1.
         11   -1    0    0    0    0 -0.00000000000E+00 -0.00000000000E+00 -0.50000499739E+01  0.50000500000E+01  0.51100000000E-03 0.  1.
         50    1    1    2    0    0 -0.16143335877E-01  0.14117544020E-01 -0.63316788950E-02  0.50000500000E+01  0.50000000000E+01 0.  0.
         50    1    1    2    0    0  0.16143335877E-01 -0.14117544020E-01  0.63316788950E-02  0.50000500000E+01  0.50000000000E+01 0. -1.
</event>
<event>
 4    1  0.5060607E-021  0.5000050E+01  0.7818608E-02  0.2136455E+00
        -11   -1    0    0    0    0  0.00000000000E+00  0.00000000000E+00  0.50000499739E+01  0.50000500000E+01  0.51100000000E-03 0.  1.
         11   -1    0    0    0    0 -0.00000000000E+00 -0.00000000000E+00 -0.50000499739E+01  0.50000500000E+01  0.51100000000E-03 0. -1.
         50    1    1    2    0    0  0.47426135554E-02 -0.19853075269E-01 -0.91304720047E-02  0.50000500000E+01  0.50000000000E+01 0.  0.
         50    1    1    2    0    0 -0.47426135554E-02  0.19853075269E-01  0.91304720047E-02  0.50000500000E+01  0.50000000000E+01 0.  0.
</event>
<event>
 4    1  0.5060607E-021  0.5000050E+01  0.7818608E-02  0.2136455E+00
        -11   -1    0    0    0    0  0.00000000000E+00  0.00000000000E+00  0.50000499739E+01  0.50000500000E+01  0.51100000000E-03 0.  1.
         11   -1    0    0    0    0 -0.00000000000E+00 -0.00000000000E+00 -0.50000499739E+01  0.50000500000E+01  0.51100000000E-03 0. -1.
         50    1    1    2    0    0  0.49354549374E-02 -0.18691462203E-01  0.11237127092E-01  0.50000500000E+01  0.50000000000E+01 0. -1.
         50    1    1    2    0    0 -0.49354549374E-02  0.18691462203E-01 -0.11237127092E-01  0.50000500000E+01  0.50000000000E+01 0.  0.
</event>
<event>
 4    1  0.5060607E-021  0.5000050E+01  0.7818608E-02  0.2136455E+00
        -11   -1    0    0    0    0  0.00000000000E+00  0.00000000000E+00  0.50000499739E+01  0.50000500000E+01  0.51100000000E-03 0.  1.
         11   -1    0    0    0    0 -0.00000000000E+00 -0.00000000000E+00 -0.50000499739E+01  0.50000500000E+01  0.51100000000E-03 0. -1.
         50    1    1    2    0    0  0.20779385286E-01 -0.53870784212E-02 -0.62609131301E-02  0.50000500000E+01  0.50000000000E+01 0.  1.
         50    1    1    2    0    0 -0.20779385286E-01  0.53870784212E-02  0.62609131301E-02  0.50000500000E+01  0.50000000000E+01 0. -1.
</event>
<event>
 4    1  0.5060607E-021  0.5000050E+01  0.7818608E-02  0.2136455E+00
        -11   -1    0    0    0    0  0.00000000000E+00  0.00000000000E+00  0.50000499739E+01  0.50000500000E+01  0.51100000000E-03 0.  1.
         11   -1    0    0    0    0 -0.00000000000E+00 -0.00000000000E+00 -0.50000499739E+01  0.50000500000E+01  0.51100000000E-03 0. -1.
         50    1    1    2    0    0  0.21145966112E-01 -0.72635910732E-02  0.30143307550E-03  0.50000500000E+01  0.50000000000E+01 0. -1.
         50    1    1    2    0    0 -0.21145966112E-01  0.72635910732E-02 -0.30143307550E-03  0.50000500000E+01  0.50000000000E+01 0.  0.
</event>
<event>
 4    1  0.5060607E-021  0.5000050E+01  0.7818608E-02  0.2136455E+00
        -11   -1    0    0    0    0  0.00000000000E+00  0.00000000000E+00  0.50000499739E+01  0.50000500000E+01  0.51100000000E-03 0. -1.
         11   -1    0    0    0    0 -0.00000000000E+00 -0.00000000000E+00 -0.50000499739E+01  0.50000500000E+01  0.51100000000E-03 0.  1.
         50    1    1    2    0    0 -0.77300630677E-02  0.10572838807E-01  0.18123567654E-01  0.50000500000E+01  0.50000000000E+01 0.  0.
         50    1    1    2    0    0  0.77300630677E-02 -0.10572838807E-01 -0.18123567654E-01  0.50000500000E+01  0.50000000000E+01 0.  1.
</event>
<event>
 4    1  0.5060607E-021  0.5000050E+01  0.7818608E-02  0.2136455E+00
        -11   -1    0    0    0    0  0.00000000000E+00  0.00000000000E+00  0.50000499739E+01  0.50000500000E+01  0.51100000000E-03 0.  1.
         11   -1    0    0    0    0 -0.00000000000E+00 -0.00000000000E+00 -0.50000499739E+01  0.50000500000E+01  0.51100000000E-03 0. -1.
         50    1    1    2    0    0  0.86700365591E-02 -0.19057095854E-01  0.78523922263E-02  0.50000500000E+01  0.50000000000E+01 0.  1.
         50    1    1    2    0    0 -0.86700365591E-02  0.19057095854E-01 -0.78523922263E-02  0.50000500000E+01  0.50000000000E+01 0. -1.
</event>
<event>
 4    1  0.5060607E-021  0.5000050E+01  0.7818608E-02  0.2136455E+00
        -11   -1    0    0    0    0  0.00000000000E+00  0.00000000000E+00  0.50000499739E+01  0.50000500000E+01  0.51100000000E-03 0. -1.
         11   -1    0    0    0    0 -0.00000000000E+00 -0.00000000000E+00 -0.50000499739E+01  0.50000500000E+01  0.51100000000E-03 0.  1.
         50    1    1    2    0    0  0.53644795349E-02  0.33232099641E-02  0.21451832902E-01  0.50000500000E+01  0.50000000000E+01 0. -1.
         50    1    1    2    0    0 -0.53644795349E-02 -0.33232099641E-02 -0.21451832902E-01  0.50000500000E+01  0.50000000000E+01 0.  0.
</event>
<event>
 4    1  0.5060607E-021  0.5000050E+01  0.7818608E-02  0.2136455E+00
        -11   -1    0    0    0    0  0.00000000000E+00  0.00000000000E+00  0.50000499739E+01  0.50000500000E+01  0.51100000000E-03 0.  1.
         11   -1    0    0    0    0 -0.00000000000E+00 -0.00000000000E+00 -0.50000499739E+01  0.50000500000E+01  0.51100000000E-03 0. -1.
         50    1    1    2    0    0  0.90583803646E-02  0.19358857336E-01 -0.65713687934E-02  0.50000500000E+01  0.50000000000E+01 0. -1.
         50    1    1    2    0    0 -0.90583803646E-02 -0.19358857336E-01  0.65713687934E-02  0.50000500000E+01  0.50000000000E+01 0.  1.
</event>
<event>
 4    1  0.5060607E-021  0.5000050E+01  0.7818608E-02  0.2136455E+00
        -11   -1    0    0    0    0  0.00000000000E+00  0.00000000000E+00  0.50000499739E+01  0.50000500000E+01  0.51100000000E-03 0.  1.
         11   -1    0    0    0    0 -0.00000000000E+00 -0.00000000000E+00 -0.50000499739E+01  0.50000500000E+01  0.51100000000E-03 0. -1.
         50    1    1    2    0    0 -0.43131997738E-02  0.20028422589E-01  0.89588557467E-02  0.50000500000E+01  0.50000000000E+01 0.  0.
         50    1    1    2    0    0  0.43131997738E-02 -0.20028422589E-01 -0.89588557467E-02  0.50000500000E+01  0.50000000000E+01 0.  0.
</event>
<event>
 4    1  0.5060607E-021  0.5000050E+01  0.7818608E-02  0.2136455E+00
        -11   -1    0    0    0    0  0.00000000000E+00  0.00000000000E+00  0.50000499739E+01  0.50000500000E+01  0.51100000000E-03 0. -1.
         11   -1    0    0    0    0 -0.00000000000E+00 -0.00000000000E+00 -0.50000499739E+01  0.50000500000E+01  0.51100000000E-03 0.  1.
         50    1    1    2    0    0 -0.20490039408E-01 -0.39468904681E-02  0.80363449830E-02  0.50000500000E+01  0.50000000000E+01 0.  0.
         50    1    1    2    0    0  0.20490039408E-01  0.39468904681E-02 -0.80363449830E-02  0.50000500000E+01  0.50000000000E+01 0.  0.
</event>
<event>
 4    1  0.5060607E-021  0.5000050E+01  0.7818608E-02  0.2136455E+00
        -11   -1    0    0    0    0  0.00000000000E+00  0.00000000000E+00  0.50000499739E+01  0.50000500000E+01  0.51100000000E-03 0.  1.
         11   -1    0    0    0    0 -0.00000000000E+00 -0.00000000000E+00 -0.50000499739E+01  0.50000500000E+01  0.51100000000E-03 0. -1.
         50    1    1    2    0    0 -0.12087819034E-02  0.22311682456E-01  0.85450120476E-03  0.50000500000E+01  0.50000000000E+01 0.  1.
         50    1    1    2    0    0  0.12087819034E-02 -0.22311682456E-01 -0.85450120476E-03  0.50000500000E+01  0.50000000000E+01 0.  0.
</event>
<event>
 4    1  0.5060607E-021  0.5000050E+01  0.7818608E-02  0.2136455E+00
        -11   -1    0    0    0    0  0.00000000000E+00  0.00000000000E+00  0.50000499739E+01  0.50000500000E+01  0.51100000000E-03 0.  1.
         11   -1    0    0    0    0 -0.00000000000E+00 -0.00000000000E+00 -0.50000499739E+01  0.50000500000E+01  0.51100000000E-03 0. -1.
         50    1    1    2    0    0  0.16573711094E-01  0.11160067070E-01  0.10038301826E-01  0.50000500000E+01  0.50000000000E+01 0.  1.
         50    1    1    2    0    0 -0.16573711094E-01 -0.11160067070E-01 -0.10038301826E-01  0.50000500000E+01  0.50000000000E+01 0. -1.
</event>
<event>
 4    1  0.5060607E-021  0.5000050E+01  0.7818608E-02  0.2136455E+00
        -11   -1    0    0    0    0  0.00000000000E+00  0.00000000000E+00  0.50000499739E+01  0.50000500000E+01  0.51100000000E-03 0.  1.
         11   -1    0    0    0    0 -0.00000000000E+00 -0.00000000000E+00 -0.50000499739E+01  0.50000500000E+01  0.51100000000E-03 0. -1.
         50    1    1    2    0    0  0.18958010839E-01  0.32972414080E-02 -0.11389667428E-01  0.50000500000E+01  0.50000000000E+01 0.  0.
         50    1    1    2    0    0 -0.18958010839E-01 -0.32972414080E-02  0.11389667428E-01  0.50000500000E+01  0.50000000000E+01 0. -1.
</event>
<event>
 4    1  0.5060607E-021  0.5000050E+01  0.7818608E-02  0.2136455E+00
        -11   -1    0    0    0    0  0.00000000000E+00  0.00000000000E+00  0.50000499739E+01  0.50000500000E+01  0.51100000000E-03 0.  1.
         11   -1    0    0    0    0 -0.00000000000E+00 -0.00000000000E+00 -0.50000499739E+01  0.50000500000E+01  0.51100000000E-03 0. -1.
         50    1    1    2    0    0 -0.19451178219E-01 -0.10523621270E-01 -0.33026597218E-02  0.50000500000E+01  0.50000000000E+01 0.  1.
         50    1    1    2    0    0  0.19451178219E-01  0.10523621270E-01  0.33026597218E-02  0.50000500000E+01  0.50000000000E+01 0.  0.
</event>
<event>
 4    1  0.5060607E-021  0.5000050E+01  0.7818608E-02  0.2136455E+00
        -11   -1    0    0    0    0  0.00000000000E+00  0.00000000000E+00  0.50000499739E+01  0.50000500000E+01  0.51100000000E-03 0.  1.
         11   -1    0    0    0    0 -0.00000000000E+00 -0.00000000000E+00 -0.50000499739E+01  0.50000500000E+01  0.51100000000E-03 0. -1.
         50    1    1    2    0    0  0.10841243078E-01 -0.15559984634E-01  0.11847228652E-01  0.50000500000E+01  0.50000000000E+01 0.  1.
         50    1    1    2    0    0 -0.10841243078E-01  0.15559984634E-01 -0.11847228652E-01  0.50000500000E+01  0.50000000000E+01 0. -1.
</event>
<event>
 4    1  0.5060607E-021  0.5000050E+01  0.7818608E-02  0.2136455E+00
        -11   -1    0    0    0    0  0.00000000000E+00  0.00000000000E+00  0.50000499739E+01  0.50000500000E+01  0.51100000000E-03 0.  1.
         11   -1    0    0    0    0 -0.00000000000E+00 -0.00000000000E+00 -0.50000499739E+01  0.50000500000E+01  0.51100000000E-03 0. -1.
         50    1    1    2    0    0  0.21889605486E-01 -0.16706837970E-02  0.42492925686E-02  0.50000500000E+01  0.50000000000E+01 0.  1.
         50    1    1    2    0    0 -0.21889605486E-01  0.16706837970E-02 -0.42492925686E-02  0.50000500000E+01  0.50000000000E+01 0. -1.
</event>
<event>
 4    1  0.5060607E-021  0.5000050E+01  0.7818608E-02  0.2136455E+00
        -11   -1    0    0    0    0  0.00000000000E+00  0.00000000000E+00  0.50000499739E+01  0.50000500000E+01  0.51100000000E-03 0.  1.
         11   -1    0    0    0    0 -0.00000000000E+00 -0.00000000000E+00 -0.50000499739E+01  0.50000500000E+01  0.51100000000E-03 0. -1.
         50    1    1    2    0    0  0.11778673000E-01 -0.18013421500E-01  0.60648172450E-02  0.50000500000E+01  0.50000000000E+01 0. -1.
         50    1    1    2    0    0 -0.11778673000E-01  0.18013421500E-01 -0.60648172450E-02  0.50000500000E+01  0.50000000000E+01 0.  1.
</event>
<event>
 4    1  0.5060607E-021  0.5000050E+01  0.7818608E-02  0.2136455E+00
        -11   -1    0    0    0    0  0.00000000000E+00  0.00000000000E+00  0.50000499739E+01  0.50000500000E+01  0.51100000000E-03 0.  1.
         11   -1    0    0    0    0 -0.00000000000E+00 -0.00000000000E+00 -0.50000499739E+01  0.50000500000E+01  0.51100000000E-03 0. -1.
         50    1    1    2    0    0  0.16527796991E-01  0.10843867194E-01  0.10452031904E-01  0.50000500000E+01  0.50000000000E+01 0.  1.
         50    1    1    2    0    0 -0.16527796991E-01 -0.10843867194E-01 -0.10452031904E-01  0.50000500000E+01  0.50000000000E+01 0. -1.
</event>
<event>
 4    1  0.5060607E-021  0.5000050E+01  0.7818608E-02  0.2136455E+00
        -11   -1    0    0    0    0  0.00000000000E+00  0.00000000000E+00  0.50000499739E+01  0.50000500000E+01  0.51100000000E-03 0.  1.
         11   -1    0    0    0    0 -0.00000000000E+00 -0.00000000000E+00 -0.50000499739E+01  0.50000500000E+01  0.51100000000E-03 0. -1.
         50    1    1    2    0    0  0.15616122840E-01 -0.93015735287E-02 -0.13023821917E-01  0.50000500000E+01  0.50000000000E+01 0.  0.
         50    1    1    2    0    0 -0.15616122840E-01  0.93015735287E-02  0.13023821917E-01  0.50000500000E+01  0.50000000000E+01 0.  0.
</event>
<event>
 4    1  0.5060607E-021  0.5000050E+01  0.7818608E-02  0.2136455E+00
        -11   -1    0    0    0    0  0.00000000000E+00  0.00000000000E+00  0.50000499739E+01  0.50000500000E+01  0.51100000000E-03 0.  1.
         11   -1    0    0    0    0 -0.00000000000E+00 -0.00000000000E+00 -0.50000499739E+01  0.50000500000E+01  0.51100000000E-03 0. -1.
         50    1    1    2    0    0 -0.15725481865E-02 -0.22209117208E-01  0.20699529095E-02  0.50000500000E+01  0.50000000000E+01 0.  1.
         50    1    1    2    0    0  0.15725481865E-02  0.22209117208E-01 -0.20699529095E-02  0.50000500000E+01  0.50000000000E+01 0. -1.
</event>
<event>
 4    1  0.5060607E-021  0.5000050E+01  0.7818608E-02  0.2136455E+00
        -11   -1    0    0    0    0  0.00000000000E+00  0.00000000000E+00  0.50000499739E+01  0.50000500000E+01  0.51100000000E-03 0. -1.
         11   -1    0    0    0    0 -0.00000000000E+00 -0.00000000000E+00 -0.50000499739E+01  0.50000500000E+01  0.51100000000E-03 0.  1.
         50    1    1    2    0    0 -0.18083718165E-01 -0.12392674629E-01  0.44049123556E-02  0.50000500000E+01  0.50000000000E+01 0.  1.
         50    1    1    2    0    0  0.18083718165E-01  0.12392674629E-01 -0.44049123556E-02  0.50000500000E+01  0.50000000000E+01 0. -1.
</event>
<event>
 4    1  0.5060607E-021  0.5000050E+01  0.7818608E-02  0.2136455E+00
        -11   -1    0    0    0    0  0.00000000000E+00  0.00000000000E+00  0.50000499739E+01  0.50000500000E+01  0.51100000000E-03 0. -1.
         11   -1    0    0    0    0 -0.00000000000E+00 -0.00000000000E+00 -0.50000499739E+01  0.50000500000E+01  0.51100000000E-03 0.  1.
         50    1    1    2    0    0  0.12822783606E-01  0.16312714175E-01  0.83351110869E-02  0.50000500000E+01  0.50000000000E+01 0. -1.
         50    1    1    2    0    0 -0.12822783606E-01 -0.16312714175E-01 -0.83351110869E-02  0.50000500000E+01  0.50000000000E+01 0.  1.
</event>
<event>
 4    1  0.5060607E-021  0.5000050E+01  0.7818608E-02  0.2136455E+00
        -11   -1    0    0    0    0  0.00000000000E+00  0.00000000000E+00  0.50000499739E+01  0.50000500000E+01  0.51100000000E-03 0.  1.
         11   -1    0    0    0    0 -0.00000000000E+00 -0.00000000000E+00 -0.50000499739E+01  0.50000500000E+01  0.51100000000E-03 0. -1.
         50    1    1    2    0    0  0.19176943012E-01 -0.75630920728E-02 -0.86629668718E-02  0.50000500000E+01  0.50000000000E+01 0. -1.
         50    1    1    2    0    0 -0.19176943012E-01  0.75630920728E-02  0.86629668718E-02  0.50000500000E+01  0.50000000000E+01 0.  1.
</event>
<event>
 4    1  0.5060607E-021  0.5000050E+01  0.7818608E-02  0.2136455E+00
        -11   -1    0    0    0    0  0.00000000000E+00  0.00000000000E+00  0.50000499739E+01  0.50000500000E+01  0.51100000000E-03 0. -1.
         11   -1    0    0    0    0 -0.00000000000E+00 -0.00000000000E+00 -0.50000499739E+01  0.50000500000E+01  0.51100000000E-03 0.  1.
         50    1    1    2    0    0  0.11700741575E-01  0.17766564920E-01 -0.68879835596E-02  0.50000500000E+01  0.50000000000E+01 0. -1.
         50    1    1    2    0    0 -0.11700741575E-01 -0.17766564920E-01  0.68879835596E-02  0.50000500000E+01  0.50000000000E+01 0.  0.
</event>
<event>
 4    1  0.5060607E-021  0.5000050E+01  0.7818608E-02  0.2136455E+00
        -11   -1    0    0    0    0  0.00000000000E+00  0.00000000000E+00  0.50000499739E+01  0.50000500000E+01  0.51100000000E-03 0. -1.
         11   -1    0    0    0    0 -0.00000000000E+00 -0.00000000000E+00 -0.50000499739E+01  0.50000500000E+01  0.51100000000E-03 0.  1.
         50    1    1    2    0    0  0.11491459660E-01  0.33301477248E-02 -0.18890711236E-01  0.50000500000E+01  0.50000000000E+01 0.  1.
         50    1    1    2    0    0 -0.11491459660E-01 -0.33301477248E-02  0.18890711236E-01  0.50000500000E+01  0.50000000000E+01 0.  0.
</event>
<event>
 4    1  0.5060607E-021  0.5000050E+01  0.7818608E-02  0.2136455E+00
        -11   -1    0    0    0    0  0.00000000000E+00  0.00000000000E+00  0.50000499739E+01  0.50000500000E+01  0.51100000000E-03 0. -1.
         11   -1    0    0    0    0 -0.00000000000E+00 -0.00000000000E+00 -0.50000499739E+01  0.50000500000E+01  0.51100000000E-03 0.  1.
         50    1    1    2    0    0  0.17140734607E-01 -0.53709848318E-02 -0.13317290980E-01  0.50000500000E+01  0.50000000000E+01 0.  1.
         50    1    1    2    0    0 -0.17140734607E-01  0.53709848318E-02  0.13317290980E-01  0.50000500000E+01  0.50000000000E+01 0. -1.
</event>
<event>
 4    1  0.5060607E-021  0.5000050E+01  0.7818608E-02  0.2136455E+00
        -11   -1    0    0    0    0  0.00000000000E+00  0.00000000000E+00  0.50000499739E+01  0.50000500000E+01  0.51100000000E-03 0. -1.
         11   -1    0    0    0    0 -0.00000000000E+00 -0.00000000000E+00 -0.50000499739E+01  0.50000500000E+01  0.51100000000E-03 0.  1.
         50    1    1    2    0    0  0.38516624208E-02 -0.17107851707E-01 -0.13874026328E-01  0.50000500000E+01  0.50000000000E+01 0.  1.
         50    1    1    2    0    0 -0.38516624208E-02  0.17107851707E-01  0.13874026328E-01  0.50000500000E+01  0.50000000000E+01 0. -1.
</event>
<event>
 4    1  0.5060607E-021  0.5000050E+01  0.7818608E-02  0.2136455E+00
        -11   -1    0    0    0    0  0.00000000000E+00  0.00000000000E+00  0.50000499739E+01  0.50000500000E+01  0.51100000000E-03 0. -1.
         11   -1    0    0    0    0 -0.00000000000E+00 -0.00000000000E+00 -0.50000499739E+01  0.50000500000E+01  0.51100000000E-03 0.  1.
         50    1    1    2    0    0  0.14331991993E-02  0.15629068193E-01 -0.15927355948E-01  0.50000500000E+01  0.50000000000E+01 0.  1.
         50    1    1    2    0    0 -0.14331991993E-02 -0.15629068193E-01  0.15927355948E-01  0.50000500000E+01  0.50000000000E+01 0. -1.
</event>
<event>
 4    1  0.5060607E-021  0.5000050E+01  0.7818608E-02  0.2136455E+00
        -11   -1    0    0    0    0  0.00000000000E+00  0.00000000000E+00  0.50000499739E+01  0.50000500000E+01  0.51100000000E-03 0. -1.
         11   -1    0    0    0    0 -0.00000000000E+00 -0.00000000000E+00 -0.50000499739E+01  0.50000500000E+01  0.51100000000E-03 0.  1.
         50    1    1    2    0    0  0.27806466649E-02  0.21653031205E-01  0.48390850117E-02  0.50000500000E+01  0.50000000000E+01 0.  1.
         50    1    1    2    0    0 -0.27806466649E-02 -0.21653031205E-01 -0.48390850117E-02  0.50000500000E+01  0.50000000000E+01 0. -1.
</event>
<event>
 4    1  0.5060607E-021  0.5000050E+01  0.7818608E-02  0.2136455E+00
        -11   -1    0    0    0    0  0.00000000000E+00  0.00000000000E+00  0.50000499739E+01  0.50000500000E+01  0.51100000000E-03 0.  1.
         11   -1    0    0    0    0 -0.00000000000E+00 -0.00000000000E+00 -0.50000499739E+01  0.50000500000E+01  0.51100000000E-03 0. -1.
         50    1    1    2    0    0  0.87725940917E-02 -0.82863364011E-02 -0.18825002575E-01  0.50000500000E+01  0.50000000000E+01 0.  0.
         50    1    1    2    0    0 -0.87725940917E-02  0.82863364011E-02  0.18825002575E-01  0.50000500000E+01  0.50000000000E+01 0.  1.
</event>
<event>
 4    1  0.5060607E-021  0.5000050E+01  0.7818608E-02  0.2136455E+00
        -11   -1    0    0    0    0  0.00000000000E+00  0.00000000000E+00  0.50000499739E+01  0.50000500000E+01  0.51100000000E-03 0. -1.
         11   -1    0    0    0    0 -0.00000000000E+00 -0.00000000000E+00 -0.50000499739E+01  0.50000500000E+01  0.51100000000E-03 0.  1.
         50    1    1    2    0    0 -0.67241667475E-02  0.13804806819E-01 -0.16254703634E-01  0.50000500000E+01  0.50000000000E+01 0.  0.
         50    1    1    2    0    0  0.67241667475E-02 -0.13804806819E-01  0.16254703634E-01  0.50000500000E+01  0.50000000000E+01 0.  0.
</event>
<event>
 4    1  0.5060607E-021  0.5000050E+01  0.7818608E-02  0.2136455E+00
        -11   -1    0    0    0    0  0.00000000000E+00  0.00000000000E+00  0.50000499739E+01  0.50000500000E+01  0.51100000000E-03 0. -1.
         11   -1    0    0    0    0 -0.00000000000E+00 -0.00000000000E+00 -0.50000499739E+01  0.50000500000E+01  0.51100000000E-03 0.  1.
         50    1    1    2    0    0 -0.11982926260E-01 -0.13039895774E-01  0.13651853224E-01  0.50000500000E+01  0.50000000000E+01 0.  1.
         50    1    1    2    0    0  0.11982926260E-01  0.13039895774E-01 -0.13651853224E-01  0.50000500000E+01  0.50000000000E+01 0.  0.
</event>
<event>
 4    1  0.5060607E-021  0.5000050E+01  0.7818608E-02  0.2136455E+00
        -11   -1    0    0    0    0  0.00000000000E+00  0.00000000000E+00  0.50000499739E+01  0.50000500000E+01  0.51100000000E-03 0.  1.
         11   -1    0    0    0    0 -0.00000000000E+00 -0.00000000000E+00 -0.50000499739E+01  0.50000500000E+01  0.51100000000E-03 0. -1.
         50    1    1    2    0    0  0.84594915154E-02 -0.87809167331E-02 -0.18743932475E-01  0.50000500000E+01  0.50000000000E+01 0.  0.
         50    1    1    2    0    0 -0.84594915154E-02  0.87809167331E-02  0.18743932475E-01  0.50000500000E+01  0.50000000000E+01 0.  1.
</event>
<event>
 4    1  0.5060607E-021  0.5000050E+01  0.7818608E-02  0.2136455E+00
        -11   -1    0    0    0    0  0.00000000000E+00  0.00000000000E+00  0.50000499739E+01  0.50000500000E+01  0.51100000000E-03 0.  1.
         11   -1    0    0    0    0 -0.00000000000E+00 -0.00000000000E+00 -0.50000499739E+01  0.50000500000E+01  0.51100000000E-03 0. -1.
         50    1    1    2    0    0  0.17532988554E-01 -0.13282222125E-01  0.40223609693E-02  0.50000500000E+01  0.50000000000E+01 0.  1.
         50    1    1    2    0    0 -0.17532988554E-01  0.13282222125E-01 -0.40223609693E-02  0.50000500000E+01  0.50000000000E+01 0. -1.
</event>
<event>
 4    1  0.5060607E-021  0.5000050E+01  0.7818608E-02  0.2136455E+00
        -11   -1    0    0    0    0  0.00000000000E+00  0.00000000000E+00  0.50000499739E+01  0.50000500000E+01  0.51100000000E-03 0.  1.
         11   -1    0    0    0    0 -0.00000000000E+00 -0.00000000000E+00 -0.50000499739E+01  0.50000500000E+01  0.51100000000E-03 0. -1.
         50    1    1    2    0    0 -0.17071217914E-01 -0.13313955509E-01  0.55959456437E-02  0.50000500000E+01  0.50000000000E+01 0.  0.
         50    1    1    2    0    0  0.17071217914E-01  0.13313955509E-01 -0.55959456437E-02  0.50000500000E+01  0.50000000000E+01 0.  0.
</event>
<event>
 4    1  0.5060607E-021  0.5000050E+01  0.7818608E-02  0.2136455E+00
        -11   -1    0    0    0    0  0.00000000000E+00  0.00000000000E+00  0.50000499739E+01  0.50000500000E+01  0.51100000000E-03 0.  1.
         11   -1    0    0    0    0 -0.00000000000E+00 -0.00000000000E+00 -0.50000499739E+01  0.50000500000E+01  0.51100000000E-03 0. -1.
         50    1    1    2    0    0  0.12646977311E-01 -0.22556490603E-02 -0.18302145017E-01  0.50000500000E+01  0.50000000000E+01 0. -1.
         50    1    1    2    0    0 -0.12646977311E-01  0.22556490603E-02  0.18302145017E-01  0.50000500000E+01  0.50000000000E+01 0.  1.
</event>
<event>
 4    1  0.5060607E-021  0.5000050E+01  0.7818608E-02  0.2136455E+00
        -11   -1    0    0    0    0  0.00000000000E+00  0.00000000000E+00  0.50000499739E+01  0.50000500000E+01  0.51100000000E-03 0.  1.
         11   -1    0    0    0    0 -0.00000000000E+00 -0.00000000000E+00 -0.50000499739E+01  0.50000500000E+01  0.51100000000E-03 0. -1.
         50    1    1    2    0    0 -0.67317186275E-02  0.17522308374E-01  0.12151344517E-01  0.50000500000E+01  0.50000000000E+01 0.  1.
         50    1    1    2    0    0  0.67317186275E-02 -0.17522308374E-01 -0.12151344517E-01  0.50000500000E+01  0.50000000000E+01 0. -1.
</event>
<event>
 4    1  0.5060607E-021  0.5000050E+01  0.7818608E-02  0.2136455E+00
        -11   -1    0    0    0    0  0.00000000000E+00  0.00000000000E+00  0.50000499739E+01  0.50000500000E+01  0.51100000000E-03 0.  1.
         11   -1    0    0    0    0 -0.00000000000E+00 -0.00000000000E+00 -0.50000499739E+01  0.50000500000E+01  0.51100000000E-03 0. -1.
         50    1    1    2    0    0  0.12608770405E-01  0.13840454028E-01  0.12225515988E-01  0.50000500000E+01  0.50000000000E+01 0.  1.
         50    1    1    2    0    0 -0.12608770405E-01 -0.13840454028E-01 -0.12225515988E-01  0.50000500000E+01  0.50000000000E+01 0. -1.
</event>
<event>
 4    1  0.5060607E-021  0.5000050E+01  0.7818608E-02  0.2136455E+00
        -11   -1    0    0    0    0  0.00000000000E+00  0.00000000000E+00  0.50000499739E+01  0.50000500000E+01  0.51100000000E-03 0. -1.
         11   -1    0    0    0    0 -0.00000000000E+00 -0.00000000000E+00 -0.50000499739E+01  0.50000500000E+01  0.51100000000E-03 0.  1.
         50    1    1    2    0    0 -0.12923527017E-01  0.18228877288E-01 -0.83245555196E-03  0.50000500000E+01  0.50000000000E+01 0. -1.
         50    1    1    2    0    0  0.12923527017E-01 -0.18228877288E-01  0.83245555197E-03  0.50000500000E+01  0.50000000000E+01 0.  1.
</event>
<event>
 4    1  0.5060607E-021  0.5000050E+01  0.7818608E-02  0.2136455E+00
        -11   -1    0    0    0    0  0.00000000000E+00  0.00000000000E+00  0.50000499739E+01  0.50000500000E+01  0.51100000000E-03 0. -1.
         11   -1    0    0    0    0 -0.00000000000E+00 -0.00000000000E+00 -0.50000499739E+01  0.50000500000E+01  0.51100000000E-03 0.  1.
         50    1    1    2    0    0 -0.15592418264E-01  0.60214126839E-02  0.14853335719E-01  0.50000500000E+01  0.50000000000E+01 0.  1.
         50    1    1    2    0    0  0.15592418264E-01 -0.60214126839E-02 -0.14853335719E-01  0.50000500000E+01  0.50000000000E+01 0.  1.
</event>
<event>
 4    1  0.5060607E-021  0.5000050E+01  0.7818608E-02  0.2136455E+00
        -11   -1    0    0    0    0  0.00000000000E+00  0.00000000000E+00  0.50000499739E+01  0.50000500000E+01  0.51100000000E-03 0. -1.
         11   -1    0    0    0    0 -0.00000000000E+00 -0.00000000000E+00 -0.50000499739E+01  0.50000500000E+01  0.51100000000E-03 0.  1.
         50    1    1    2    0    0 -0.10659178305E-01  0.13695329055E-01  0.14100438998E-01  0.50000500000E+01  0.50000000000E+01 0. -1.
         50    1    1    2    0    0  0.10659178305E-01 -0.13695329055E-01 -0.14100438998E-01  0.50000500000E+01  0.50000000000E+01 0.  1.
</event>
<event>
 4    1  0.5060607E-021  0.5000050E+01  0.7818608E-02  0.2136455E+00
        -11   -1    0    0    0    0  0.00000000000E+00  0.00000000000E+00  0.50000499739E+01  0.50000500000E+01  0.51100000000E-03 0. -1.
         11   -1    0    0    0    0 -0.00000000000E+00 -0.00000000000E+00 -0.50000499739E+01  0.50000500000E+01  0.51100000000E-03 0.  1.
         50    1    1    2    0    0  0.87632961040E-02  0.12482611017E-01  0.16352111900E-01  0.50000500000E+01  0.50000000000E+01 0.  0.
         50    1    1    2    0    0 -0.87632961040E-02 -0.12482611017E-01 -0.16352111900E-01  0.50000500000E+01  0.50000000000E+01 0.  0.
</event>
<event>
 4    1  0.5060607E-021  0.5000050E+01  0.7818608E-02  0.2136455E+00
        -11   -1    0    0    0    0  0.00000000000E+00  0.00000000000E+00  0.50000499739E+01  0.50000500000E+01  0.51100000000E-03 0.  1.
         11   -1    0    0    0    0 -0.00000000000E+00 -0.00000000000E+00 -0.50000499739E+01  0.50000500000E+01  0.51100000000E-03 0. -1.
         50    1    1    2    0    0  0.10871682307E-01 -0.16686178620E-01  0.10167618546E-01  0.50000500000E+01  0.50000000000E+01 0. -1.
         50    1    1    2    0    0 -0.10871682307E-01  0.16686178620E-01 -0.10167618546E-01  0.50000500000E+01  0.50000000000E+01 0. -1.
</event>
<event>
 4    1  0.5060607E-021  0.5000050E+01  0.7818608E-02  0.2136455E+00
        -11   -1    0    0    0    0  0.00000000000E+00  0.00000000000E+00  0.50000499739E+01  0.50000500000E+01  0.51100000000E-03 0. -1.
         11   -1    0    0    0    0 -0.00000000000E+00 -0.00000000000E+00 -0.50000499739E+01  0.50000500000E+01  0.51100000000E-03 0.  1.
         50    1    1    2    0    0 -0.48398721495E-02 -0.89543132030E-02  0.19909756720E-01  0.50000500000E+01  0.50000000000E+01 0. -1.
         50    1    1    2    0    0  0.48398721495E-02  0.89543132030E-02 -0.19909756720E-01  0.50000500000E+01  0.50000000000E+01 0.  1.
</event>
<event>
 4    1  0.5060607E-021  0.5000050E+01  0.7818608E-02  0.2136455E+00
        -11   -1    0    0    0    0  0.00000000000E+00  0.00000000000E+00  0.50000499739E+01  0.50000500000E+01  0.51100000000E-03 0.  1.
         11   -1    0    0    0    0 -0.00000000000E+00 -0.00000000000E+00 -0.50000499739E+01  0.50000500000E+01  0.51100000000E-03 0. -1.
         50    1    1    2    0    0  0.47970940367E-02 -0.13538292996E-01 -0.17137824003E-01  0.50000500000E+01  0.50000000000E+01 0. -1.
         50    1    1    2    0    0 -0.47970940367E-02  0.13538292996E-01  0.17137824003E-01  0.50000500000E+01  0.50000000000E+01 0.  1.
</event>
<event>
 4    1  0.5060607E-021  0.5000050E+01  0.7818608E-02  0.2136455E+00
        -11   -1    0    0    0    0  0.00000000000E+00  0.00000000000E+00  0.50000499739E+01  0.50000500000E+01  0.51100000000E-03 0. -1.
         11   -1    0    0    0    0 -0.00000000000E+00 -0.00000000000E+00 -0.50000499739E+01  0.50000500000E+01  0.51100000000E-03 0.  1.
         50    1    1    2    0    0 -0.49803947388E-02  0.14311400688E-01 -0.16443295855E-01  0.50000500000E+01  0.50000000000E+01 0.  1.
         50    1    1    2    0    0  0.49803947388E-02 -0.14311400688E-01  0.16443295855E-01  0.50000500000E+01  0.50000000000E+01 0. -1.
</event>
<event>
 4    1  0.5060607E-021  0.5000050E+01  0.7818608E-02  0.2136455E+00
        -11   -1    0    0    0    0  0.00000000000E+00  0.00000000000E+00  0.50000499739E+01  0.50000500000E+01  0.51100000000E-03 0. -1.
         11   -1    0    0    0    0 -0.00000000000E+00 -0.00000000000E+00 -0.50000499739E+01  0.50000500000E+01  0.51100000000E-03 0.  1.
         50    1    1    2    0    0  0.17632249286E-01  0.29607615633E-02  0.13429079494E-01  0.50000500000E+01  0.50000000000E+01 0. -1.
         50    1    1    2    0    0 -0.17632249286E-01 -0.29607615633E-02 -0.13429079494E-01  0.50000500000E+01  0.50000000000E+01 0.  1.
</event>
<event>
 4    1  0.5060607E-021  0.5000050E+01  0.7818608E-02  0.2136455E+00
        -11   -1    0    0    0    0  0.00000000000E+00  0.00000000000E+00  0.50000499739E+01  0.50000500000E+01  0.51100000000E-03 0. -1.
         11   -1    0    0    0    0 -0.00000000000E+00 -0.00000000000E+00 -0.50000499739E+01  0.50000500000E+01  0.51100000000E-03 0.  1.
         50    1    1    2    0    0  0.12913783443E-01 -0.25980459764E-02  0.18068947238E-01  0.50000500000E+01  0.50000000000E+01 0. -1.
         50    1    1    2    0    0 -0.12913783443E-01  0.25980459764E-02 -0.18068947238E-01  0.50000500000E+01  0.50000000000E+01 0.  1.
</event>
<event>
 4    1  0.5060607E-021  0.5000050E+01  0.7818608E-02  0.2136455E+00
        -11   -1    0    0    0    0  0.00000000000E+00  0.00000000000E+00  0.50000499739E+01  0.50000500000E+01  0.51100000000E-03 0. -1.
         11   -1    0    0    0    0 -0.00000000000E+00 -0.00000000000E+00 -0.50000499739E+01  0.50000500000E+01  0.51100000000E-03 0.  1.
         50    1    1    2    0    0 -0.17255827103E-01 -0.14221062171E-01 -0.17936168828E-04  0.50000500000E+01  0.50000000000E+01 0.  1.
         50    1    1    2    0    0  0.17255827103E-01  0.14221062171E-01  0.17936168829E-04  0.50000500000E+01  0.50000000000E+01 0. -1.
</event>
<event>
 4    1  0.5060607E-021  0.5000050E+01  0.7818608E-02  0.2136455E+00
        -11   -1    0    0    0    0  0.00000000000E+00  0.00000000000E+00  0.50000499739E+01  0.50000500000E+01  0.51100000000E-03 0.  1.
         11   -1    0    0    0    0 -0.00000000000E+00 -0.00000000000E+00 -0.50000499739E+01  0.50000500000E+01  0.51100000000E-03 0. -1.
         50    1    1    2    0    0 -0.20912870669E-01 -0.70894993443E-02 -0.35204175077E-02  0.50000500000E+01  0.50000000000E+01 0.  0.
         50    1    1    2    0    0  0.20912870669E-01  0.70894993443E-02  0.35204175077E-02  0.50000500000E+01  0.50000000000E+01 0.  0.
</event>
<event>
 4    1  0.5060607E-021  0.5000050E+01  0.7818608E-02  0.2136455E+00
        -11   -1    0    0    0    0  0.00000000000E+00  0.00000000000E+00  0.50000499739E+01  0.50000500000E+01  0.51100000000E-03 0. -1.
         11   -1    0    0    0    0 -0.00000000000E+00 -0.00000000000E+00 -0.50000499739E+01  0.50000500000E+01  0.51100000000E-03 0.  1.
         50    1    1    2    0    0 -0.17559855255E-01 -0.13466972010E-01  0.32085274364E-02  0.50000500000E+01  0.50000000000E+01 0. -1.
         50    1    1    2    0    0  0.17559855255E-01  0.13466972010E-01 -0.32085274364E-02  0.50000500000E+01  0.50000000000E+01 0.  1.
</event>
<event>
 4    1  0.5060607E-021  0.5000050E+01  0.7818608E-02  0.2136455E+00
        -11   -1    0    0    0    0  0.00000000000E+00  0.00000000000E+00  0.50000499739E+01  0.50000500000E+01  0.51100000000E-03 0. -1.
         11   -1    0    0    0    0 -0.00000000000E+00 -0.00000000000E+00 -0.50000499739E+01  0.50000500000E+01  0.51100000000E-03 0.  1.
         50    1    1    2    0    0  0.93240807494E-02  0.13173765909E-01 -0.15476301559E-01  0.50000500000E+01  0.50000000000E+01 0.  1.
         50    1    1    2    0    0 -0.93240807494E-02 -0.13173765909E-01  0.15476301559E-01  0.50000500000E+01  0.50000000000E+01 0.  0.
</event>
<event>
 4    1  0.5060607E-021  0.5000050E+01  0.7818608E-02  0.2136455E+00
        -11   -1    0    0    0    0  0.00000000000E+00  0.00000000000E+00  0.50000499739E+01  0.50000500000E+01  0.51100000000E-03 0. -1.
         11   -1    0    0    0    0 -0.00000000000E+00 -0.00000000000E+00 -0.50000499739E+01  0.50000500000E+01  0.51100000000E-03 0.  1.
         50    1    1    2    0    0  0.11414933016E-01  0.13763030408E-01 -0.13426868520E-01  0.50000500000E+01  0.50000000000E+01 0.  0.
         50    1    1    2    0    0 -0.11414933016E-01 -0.13763030408E-01  0.13426868520E-01  0.50000500000E+01  0.50000000000E+01 0.  0.
</event>
<event>
 4    1  0.5060607E-021  0.5000050E+01  0.7818608E-02  0.2136455E+00
        -11   -1    0    0    0    0  0.00000000000E+00  0.00000000000E+00  0.50000499739E+01  0.50000500000E+01  0.51100000000E-03 0. -1.
         11   -1    0    0    0    0 -0.00000000000E+00 -0.00000000000E+00 -0.50000499739E+01  0.50000500000E+01  0.51100000000E-03 0.  1.
         50    1    1    2    0    0 -0.12560453174E-01  0.16035038144E-01  0.92257827727E-02  0.50000500000E+01  0.50000000000E+01 0.  1.
         50    1    1    2    0    0  0.12560453174E-01 -0.16035038144E-01 -0.92257827727E-02  0.50000500000E+01  0.50000000000E+01 0.  0.
</event>
<event>
 4    1  0.5060607E-021  0.5000050E+01  0.7818608E-02  0.2136455E+00
        -11   -1    0    0    0    0  0.00000000000E+00  0.00000000000E+00  0.50000499739E+01  0.50000500000E+01  0.51100000000E-03 0.  1.
         11   -1    0    0    0    0 -0.00000000000E+00 -0.00000000000E+00 -0.50000499739E+01  0.50000500000E+01  0.51100000000E-03 0. -1.
         50    1    1    2    0    0  0.82446570438E-02 -0.15171136947E-01  0.14207910965E-01  0.50000500000E+01  0.50000000000E+01 0.  0.
         50    1    1    2    0    0 -0.82446570438E-02  0.15171136947E-01 -0.14207910965E-01  0.50000500000E+01  0.50000000000E+01 0.  1.
</event>
<event>
 4    1  0.5060607E-021  0.5000050E+01  0.7818608E-02  0.2136455E+00
        -11   -1    0    0    0    0  0.00000000000E+00  0.00000000000E+00  0.50000499739E+01  0.50000500000E+01  0.51100000000E-03 0. -1.
         11   -1    0    0    0    0 -0.00000000000E+00 -0.00000000000E+00 -0.50000499739E+01  0.50000500000E+01  0.51100000000E-03 0.  1.
         50    1    1    2    0    0 -0.36650944050E-02 -0.11035212601E-01 -0.19099572400E-01  0.50000500000E+01  0.50000000000E+01 0.  0.
         50    1    1    2    0    0  0.36650944050E-02  0.11035212601E-01  0.19099572400E-01  0.50000500000E+01  0.50000000000E+01 0. -1.
</event>
<event>
 4    1  0.5060607E-021  0.5000050E+01  0.7818608E-02  0.2136455E+00
        -11   -1    0    0    0    0  0.00000000000E+00  0.00000000000E+00  0.50000499739E+01  0.50000500000E+01  0.51100000000E-03 0. -1.
         11   -1    0    0    0    0 -0.00000000000E+00 -0.00000000000E+00 -0.50000499739E+01  0.50000500000E+01  0.51100000000E-03 0.  1.
         50    1    1    2    0    0  0.13888288418E-01 -0.15608734908E-01  0.79677687835E-02  0.50000500000E+01  0.50000000000E+01 0. -1.
         50    1    1    2    0    0 -0.13888288418E-01  0.15608734908E-01 -0.79677687835E-02  0.50000500000E+01  0.50000000000E+01 0.  1.
</event>
<event>
 4    1  0.5060607E-021  0.5000050E+01  0.7818608E-02  0.2136455E+00
        -11   -1    0    0    0    0  0.00000000000E+00  0.00000000000E+00  0.50000499739E+01  0.50000500000E+01  0.51100000000E-03 0.  1.
         11   -1    0    0    0    0 -0.00000000000E+00 -0.00000000000E+00 -0.50000499739E+01  0.50000500000E+01  0.51100000000E-03 0. -1.
         50    1    1    2    0    0  0.90497084744E-02 -0.72279138497E-02  0.19127533503E-01  0.50000500000E+01  0.50000000000E+01 0.  1.
         50    1    1    2    0    0 -0.90497084744E-02  0.72279138497E-02 -0.19127533503E-01  0.50000500000E+01  0.50000000000E+01 0.  0.
</event>
<event>
 4    1  0.5060607E-021  0.5000050E+01  0.7818608E-02  0.2136455E+00
        -11   -1    0    0    0    0  0.00000000000E+00  0.00000000000E+00  0.50000499739E+01  0.50000500000E+01  0.51100000000E-03 0. -1.
         11   -1    0    0    0    0 -0.00000000000E+00 -0.00000000000E+00 -0.50000499739E+01  0.50000500000E+01  0.51100000000E-03 0.  1.
         50    1    1    2    0    0 -0.67377427759E-04 -0.21547123940E-01  0.59765717751E-02  0.50000500000E+01  0.50000000000E+01 0.  1.
         50    1    1    2    0    0  0.67377427759E-04  0.21547123940E-01 -0.59765717751E-02  0.50000500000E+01  0.50000000000E+01 0. -1.
</event>
<event>
 4    1  0.5060607E-021  0.5000050E+01  0.7818608E-02  0.2136455E+00
        -11   -1    0    0    0    0  0.00000000000E+00  0.00000000000E+00  0.50000499739E+01  0.50000500000E+01  0.51100000000E-03 0. -1.
         11   -1    0    0    0    0 -0.00000000000E+00 -0.00000000000E+00 -0.50000499739E+01  0.50000500000E+01  0.51100000000E-03 0.  1.
         50    1    1    2    0    0 -0.10608959936E-01  0.17161002815E-01 -0.96411851690E-02  0.50000500000E+01  0.50000000000E+01 0.  0.
         50    1    1    2    0    0  0.10608959936E-01 -0.17161002815E-01  0.96411851690E-02  0.50000500000E+01  0.50000000000E+01 0.  0.
</event>
<event>
 4    1  0.5060607E-021  0.5000050E+01  0.7818608E-02  0.2136455E+00
        -11   -1    0    0    0    0  0.00000000000E+00  0.00000000000E+00  0.50000499739E+01  0.50000500000E+01  0.51100000000E-03 0. -1.
         11   -1    0    0    0    0 -0.00000000000E+00 -0.00000000000E+00 -0.50000499739E+01  0.50000500000E+01  0.51100000000E-03 0.  1.
         50    1    1    2    0    0 -0.19021236084E-01  0.10675416859E-01 -0.49224539333E-02  0.50000500000E+01  0.50000000000E+01 0.  1.
         50    1    1    2    0    0  0.19021236084E-01 -0.10675416859E-01  0.49224539333E-02  0.50000500000E+01  0.50000000000E+01 0. -1.
</event>
<event>
 4    1  0.5060607E-021  0.5000050E+01  0.7818608E-02  0.2136455E+00
        -11   -1    0    0    0    0  0.00000000000E+00  0.00000000000E+00  0.50000499739E+01  0.50000500000E+01  0.51100000000E-03 0. -1.
         11   -1    0    0    0    0 -0.00000000000E+00 -0.00000000000E+00 -0.50000499739E+01  0.50000500000E+01  0.51100000000E-03 0.  1.
         50    1    1    2    0    0  0.13927029247E-01 -0.16232577133E-01  0.65225605367E-02  0.50000500000E+01  0.50000000000E+01 0. -1.
         50    1    1    2    0    0 -0.13927029247E-01  0.16232577133E-01 -0.65225605367E-02  0.50000500000E+01  0.50000000000E+01 0.  0.
</event>
<event>
 4    1  0.5060607E-021  0.5000050E+01  0.7818608E-02  0.2136455E+00
        -11   -1    0    0    0    0  0.00000000000E+00  0.00000000000E+00  0.50000499739E+01  0.50000500000E+01  0.51100000000E-03 0.  1.
         11   -1    0    0    0    0 -0.00000000000E+00 -0.00000000000E+00 -0.50000499739E+01  0.50000500000E+01  0.51100000000E-03 0. -1.
         50    1    1    2    0    0 -0.20690864866E-01  0.63192535486E-02 -0.56531093801E-02  0.50000500000E+01  0.50000000000E+01 0.  0.
         50    1    1    2    0    0  0.20690864866E-01 -0.63192535486E-02  0.56531093801E-02  0.50000500000E+01  0.50000000000E+01 0.  0.
</event>
<event>
 4    1  0.5060607E-021  0.5000050E+01  0.7818608E-02  0.2136455E+00
        -11   -1    0    0    0    0  0.00000000000E+00  0.00000000000E+00  0.50000499739E+01  0.50000500000E+01  0.51100000000E-03 0. -1.
         11   -1    0    0    0    0 -0.00000000000E+00 -0.00000000000E+00 -0.50000499739E+01  0.50000500000E+01  0.51100000000E-03 0.  1.
         50    1    1    2    0    0 -0.15481128082E-01  0.14106479770E-01 -0.78322667109E-02  0.50000500000E+01  0.50000000000E+01 0.  1.
         50    1    1    2    0    0  0.15481128082E-01 -0.14106479770E-01  0.78322667109E-02  0.50000500000E+01  0.50000000000E+01 0. -1.
</event>
<event>
 4    1  0.5060607E-021  0.5000050E+01  0.7818608E-02  0.2136455E+00
        -11   -1    0    0    0    0  0.00000000000E+00  0.00000000000E+00  0.50000499739E+01  0.50000500000E+01  0.51100000000E-03 0.  1.
         11   -1    0    0    0    0 -0.00000000000E+00 -0.00000000000E+00 -0.50000499739E+01  0.50000500000E+01  0.51100000000E-03 0. -1.
         50    1    1    2    0    0  0.14259255769E-01  0.64788221608E-02  0.15959354258E-01  0.50000500000E+01  0.50000000000E+01 0.  0.
         50    1    1    2    0    0 -0.14259255769E-01 -0.64788221608E-02 -0.15959354258E-01  0.50000500000E+01  0.50000000000E+01 0.  0.
</event>
<event>
 4    1  0.5060607E-021  0.5000050E+01  0.7818608E-02  0.2136455E+00
        -11   -1    0    0    0    0  0.00000000000E+00  0.00000000000E+00  0.50000499739E+01  0.50000500000E+01  0.51100000000E-03 0.  1.
         11   -1    0    0    0    0 -0.00000000000E+00 -0.00000000000E+00 -0.50000499739E+01  0.50000500000E+01  0.51100000000E-03 0. -1.
         50    1    1    2    0    0  0.15201352985E-01 -0.39294066478E-02 -0.15921090755E-01  0.50000500000E+01  0.50000000000E+01 0.  0.
         50    1    1    2    0    0 -0.15201352985E-01  0.39294066478E-02  0.15921090755E-01  0.50000500000E+01  0.50000000000E+01 0.  0.
</event>
<event>
 4    1  0.5060607E-021  0.5000050E+01  0.7818608E-02  0.2136455E+00
        -11   -1    0    0    0    0  0.00000000000E+00  0.00000000000E+00  0.50000499739E+01  0.50000500000E+01  0.51100000000E-03 0. -1.
         11   -1    0    0    0    0 -0.00000000000E+00 -0.00000000000E+00 -0.50000499739E+01  0.50000500000E+01  0.51100000000E-03 0.  1.
         50    1    1    2    0    0  0.18641192622E-01 -0.18684065027E-02 -0.12207272208E-01  0.50000500000E+01  0.50000000000E+01 0.  1.
         50    1    1    2    0    0 -0.18641192622E-01  0.18684065027E-02  0.12207272208E-01  0.50000500000E+01  0.50000000000E+01 0. -1.
</event>
<event>
 4    1  0.5060607E-021  0.5000050E+01  0.7818608E-02  0.2136455E+00
        -11   -1    0    0    0    0  0.00000000000E+00  0.00000000000E+00  0.50000499739E+01  0.50000500000E+01  0.51100000000E-03 0. -1.
         11   -1    0    0    0    0 -0.00000000000E+00 -0.00000000000E+00 -0.50000499739E+01  0.50000500000E+01  0.51100000000E-03 0.  1.
         50    1    1    2    0    0  0.98119102284E-02  0.19195312836E-01 -0.59387610485E-02  0.50000500000E+01  0.50000000000E+01 0.  1.
         50    1    1    2    0    0 -0.98119102284E-02 -0.19195312836E-01  0.59387610485E-02  0.50000500000E+01  0.50000000000E+01 0. -1.
</event>
<event>
 4    1  0.5060607E-021  0.5000050E+01  0.7818608E-02  0.2136455E+00
        -11   -1    0    0    0    0  0.00000000000E+00  0.00000000000E+00  0.50000499739E+01  0.50000500000E+01  0.51100000000E-03 0. -1.
         11   -1    0    0    0    0 -0.00000000000E+00 -0.00000000000E+00 -0.50000499739E+01  0.50000500000E+01  0.51100000000E-03 0.  1.
         50    1    1    2    0    0  0.20192238839E-01  0.94148090764E-02  0.19071865993E-02  0.50000500000E+01  0.50000000000E+01 0.  1.
         50    1    1    2    0    0 -0.20192238839E-01 -0.94148090764E-02 -0.19071865993E-02  0.50000500000E+01  0.50000000000E+01 0.  0.
</event>
<event>
 4    1  0.5060607E-021  0.5000050E+01  0.7818608E-02  0.2136455E+00
        -11   -1    0    0    0    0  0.00000000000E+00  0.00000000000E+00  0.50000499739E+01  0.50000500000E+01  0.51100000000E-03 0.  1.
         11   -1    0    0    0    0 -0.00000000000E+00 -0.00000000000E+00 -0.50000499739E+01  0.50000500000E+01  0.51100000000E-03 0. -1.
         50    1    1    2    0    0 -0.15390232836E-01  0.11624693861E-01 -0.11314138318E-01  0.50000500000E+01  0.50000000000E+01 0.  0.
         50    1    1    2    0    0  0.15390232836E-01 -0.11624693861E-01  0.11314138318E-01  0.50000500000E+01  0.50000000000E+01 0.  0.
</event>
<event>
 4    1  0.5060607E-021  0.5000050E+01  0.7818608E-02  0.2136455E+00
        -11   -1    0    0    0    0  0.00000000000E+00  0.00000000000E+00  0.50000499739E+01  0.50000500000E+01  0.51100000000E-03 0. -1.
         11   -1    0    0    0    0 -0.00000000000E+00 -0.00000000000E+00 -0.50000499739E+01  0.50000500000E+01  0.51100000000E-03 0.  1.
         50    1    1    2    0    0  0.18363438923E-01 -0.36000615769E-03 -0.12753705599E-01  0.50000500000E+01  0.50000000000E+01 0. -1.
         50    1    1    2    0    0 -0.18363438923E-01  0.36000615769E-03  0.12753705599E-01  0.50000500000E+01  0.50000000000E+01 0. -1.
</event>
<event>
 4    1  0.5060607E-021  0.5000050E+01  0.7818608E-02  0.2136455E+00
        -11   -1    0    0    0    0  0.00000000000E+00  0.00000000000E+00  0.50000499739E+01  0.50000500000E+01  0.51100000000E-03 0. -1.
         11   -1    0    0    0    0 -0.00000000000E+00 -0.00000000000E+00 -0.50000499739E+01  0.50000500000E+01  0.51100000000E-03 0.  1.
         50    1    1    2    0    0  0.95662228753E-02  0.18849560797E-01  0.72927318370E-02  0.50000500000E+01  0.50000000000E+01 0.  1.
         50    1    1    2    0    0 -0.95662228753E-02 -0.18849560797E-01 -0.72927318370E-02  0.50000500000E+01  0.50000000000E+01 0. -1.
</event>
<event>
 4    1  0.5060607E-021  0.5000050E+01  0.7818608E-02  0.2136455E+00
        -11   -1    0    0    0    0  0.00000000000E+00  0.00000000000E+00  0.50000499739E+01  0.50000500000E+01  0.51100000000E-03 0.  1.
         11   -1    0    0    0    0 -0.00000000000E+00 -0.00000000000E+00 -0.50000499739E+01  0.50000500000E+01  0.51100000000E-03 0. -1.
         50    1    1    2    0    0  0.18691849786E-01 -0.37038273699E-02 -0.11700380951E-01  0.50000500000E+01  0.50000000000E+01 0. -1.
         50    1    1    2    0    0 -0.18691849786E-01  0.37038273699E-02  0.11700380951E-01  0.50000500000E+01  0.50000000000E+01 0.  1.
</event>
<event>
 4    1  0.5060607E-021  0.5000050E+01  0.7818608E-02  0.2136455E+00
        -11   -1    0    0    0    0  0.00000000000E+00  0.00000000000E+00  0.50000499739E+01  0.50000500000E+01  0.51100000000E-03 0. -1.
         11   -1    0    0    0    0 -0.00000000000E+00 -0.00000000000E+00 -0.50000499739E+01  0.50000500000E+01  0.51100000000E-03 0.  1.
         50    1    1    2    0    0  0.59319680191E-03  0.14886487453E-01  0.16674624699E-01  0.50000500000E+01  0.50000000000E+01 0. -1.
         50    1    1    2    0    0 -0.59319680191E-03 -0.14886487453E-01 -0.16674624699E-01  0.50000500000E+01  0.50000000000E+01 0. -1.
</event>
<event>
 4    1  0.5060607E-021  0.5000050E+01  0.7818608E-02  0.2136455E+00
        -11   -1    0    0    0    0  0.00000000000E+00  0.00000000000E+00  0.50000499739E+01  0.50000500000E+01  0.51100000000E-03 0. -1.
         11   -1    0    0    0    0 -0.00000000000E+00 -0.00000000000E+00 -0.50000499739E+01  0.50000500000E+01  0.51100000000E-03 0.  1.
         50    1    1    2    0    0  0.11974147417E-01 -0.70900207274E-02 -0.17502968312E-01  0.50000500000E+01  0.50000000000E+01 0.  1.
         50    1    1    2    0    0 -0.11974147417E-01  0.70900207274E-02  0.17502968312E-01  0.50000500000E+01  0.50000000000E+01 0.  0.
</event>
<event>
 4    1  0.5060607E-021  0.5000050E+01  0.7818608E-02  0.2136455E+00
        -11   -1    0    0    0    0  0.00000000000E+00  0.00000000000E+00  0.50000499739E+01  0.50000500000E+01  0.51100000000E-03 0. -1.
         11   -1    0    0    0    0 -0.00000000000E+00 -0.00000000000E+00 -0.50000499739E+01  0.50000500000E+01  0.51100000000E-03 0.  1.
         50    1    1    2    0    0 -0.15978303556E-02 -0.22090893163E-01 -0.30727638090E-02  0.50000500000E+01  0.50000000000E+01 0. -1.
         50    1    1    2    0    0  0.15978303556E-02  0.22090893163E-01  0.30727638090E-02  0.50000500000E+01  0.50000000000E+01 0.  0.
</event>
<event>
 4    1  0.5060607E-021  0.5000050E+01  0.7818608E-02  0.2136455E+00
        -11   -1    0    0    0    0  0.00000000000E+00  0.00000000000E+00  0.50000499739E+01  0.50000500000E+01  0.51100000000E-03 0.  1.
         11   -1    0    0    0    0 -0.00000000000E+00 -0.00000000000E+00 -0.50000499739E+01  0.50000500000E+01  0.51100000000E-03 0. -1.
         50    1    1    2    0    0 -0.18315823463E-01  0.44521066683E-02 -0.12029624145E-01  0.50000500000E+01  0.50000000000E+01 0. -1.
         50    1    1    2    0    0  0.18315823463E-01 -0.44521066683E-02  0.12029624145E-01  0.50000500000E+01  0.50000000000E+01 0.  1.
</event>
<event>
 4    1  0.5060607E-021  0.5000050E+01  0.7818608E-02  0.2136455E+00
        -11   -1    0    0    0    0  0.00000000000E+00  0.00000000000E+00  0.50000499739E+01  0.50000500000E+01  0.51100000000E-03 0.  1.
         11   -1    0    0    0    0 -0.00000000000E+00 -0.00000000000E+00 -0.50000499739E+01  0.50000500000E+01  0.51100000000E-03 0. -1.
         50    1    1    2    0    0 -0.10837866643E-01 -0.17877802099E-01 -0.79326753843E-02  0.50000500000E+01  0.50000000000E+01 0.  0.
         50    1    1    2    0    0  0.10837866643E-01  0.17877802099E-01  0.79326753843E-02  0.50000500000E+01  0.50000000000E+01 0.  0.
</event>
<event>
 4    1  0.5060607E-021  0.5000050E+01  0.7818608E-02  0.2136455E+00
        -11   -1    0    0    0    0  0.00000000000E+00  0.00000000000E+00  0.50000499739E+01  0.50000500000E+01  0.51100000000E-03 0. -1.
         11   -1    0    0    0    0 -0.00000000000E+00 -0.00000000000E+00 -0.50000499739E+01  0.50000500000E+01  0.51100000000E-03 0.  1.
         50    1    1    2    0    0  0.58709225975E-02 -0.66895542706E-03  0.21565882001E-01  0.50000500000E+01  0.50000000000E+01 0.  0.
         50    1    1    2    0    0 -0.58709225975E-02  0.66895542706E-03 -0.21565882001E-01  0.50000500000E+01  0.50000000000E+01 0.  0.
</event>
<event>
 4    1  0.5060607E-021  0.5000050E+01  0.7818608E-02  0.2136455E+00
        -11   -1    0    0    0    0  0.00000000000E+00  0.00000000000E+00  0.50000499739E+01  0.50000500000E+01  0.51100000000E-03 0. -1.
         11   -1    0    0    0    0 -0.00000000000E+00 -0.00000000000E+00 -0.50000499739E+01  0.50000500000E+01  0.51100000000E-03 0.  1.
         50    1    1    2    0    0  0.93903854527E-02  0.18420083884E-01 -0.85160830636E-02  0.50000500000E+01  0.50000000000E+01 0. -1.
         50    1    1    2    0    0 -0.93903854527E-02 -0.18420083884E-01  0.85160830636E-02  0.50000500000E+01  0.50000000000E+01 0.  1.
</event>
<event>
 4    1  0.5060607E-021  0.5000050E+01  0.7818608E-02  0.2136455E+00
        -11   -1    0    0    0    0  0.00000000000E+00  0.00000000000E+00  0.50000499739E+01  0.50000500000E+01  0.51100000000E-03 0.  1.
         11   -1    0    0    0    0 -0.00000000000E+00 -0.00000000000E+00 -0.50000499739E+01  0.50000500000E+01  0.51100000000E-03 0. -1.
         50    1    1    2    0    0  0.12381606723E-01  0.13733344940E-01  0.12573525827E-01  0.50000500000E+01  0.50000000000E+01 0.  1.
         50    1    1    2    0    0 -0.12381606723E-01 -0.13733344940E-01 -0.12573525827E-01  0.50000500000E+01  0.50000000000E+01 0. -1.
</event>
<event>
 4    1  0.5060607E-021  0.5000050E+01  0.7818608E-02  0.2136455E+00
        -11   -1    0    0    0    0  0.00000000000E+00  0.00000000000E+00  0.50000499739E+01  0.50000500000E+01  0.51100000000E-03 0. -1.
         11   -1    0    0    0    0 -0.00000000000E+00 -0.00000000000E+00 -0.50000499739E+01  0.50000500000E+01  0.51100000000E-03 0.  1.
         50    1    1    2    0    0  0.37969632835E-02  0.17698151047E-01  0.13128633567E-01  0.50000500000E+01  0.50000000000E+01 0.  1.
         50    1    1    2    0    0 -0.37969632835E-02 -0.17698151047E-01 -0.13128633567E-01  0.50000500000E+01  0.50000000000E+01 0.  0.
</event>
<event>
 4    1  0.5060607E-021  0.5000050E+01  0.7818608E-02  0.2136455E+00
        -11   -1    0    0    0    0  0.00000000000E+00  0.00000000000E+00  0.50000499739E+01  0.50000500000E+01  0.51100000000E-03 0.  1.
         11   -1    0    0    0    0 -0.00000000000E+00 -0.00000000000E+00 -0.50000499739E+01  0.50000500000E+01  0.51100000000E-03 0. -1.
         50    1    1    2    0    0  0.30062302310E-03 -0.20580565982E-01  0.87379877339E-02  0.50000500000E+01  0.50000000000E+01 0.  1.
         50    1    1    2    0    0 -0.30062302310E-03  0.20580565982E-01 -0.87379877339E-02  0.50000500000E+01  0.50000000000E+01 0. -1.
</event>
<event>
 4    1  0.5060607E-021  0.5000050E+01  0.7818608E-02  0.2136455E+00
        -11   -1    0    0    0    0  0.00000000000E+00  0.00000000000E+00  0.50000499739E+01  0.50000500000E+01  0.51100000000E-03 0.  1.
         11   -1    0    0    0    0 -0.00000000000E+00 -0.00000000000E+00 -0.50000499739E+01  0.50000500000E+01  0.51100000000E-03 0. -1.
         50    1    1    2    0    0  0.66976999381E-03 -0.65458360947E-02 -0.21370679399E-01  0.50000500000E+01  0.50000000000E+01 0.  0.
         50    1    1    2    0    0 -0.66976999381E-03  0.65458360947E-02  0.21370679399E-01  0.50000500000E+01  0.50000000000E+01 0.  1.
</event>
<event>
 4    1  0.5060607E-021  0.5000050E+01  0.7818608E-02  0.2136455E+00
        -11   -1    0    0    0    0  0.00000000000E+00  0.00000000000E+00  0.50000499739E+01  0.50000500000E+01  0.51100000000E-03 0.  1.
         11   -1    0    0    0    0 -0.00000000000E+00 -0.00000000000E+00 -0.50000499739E+01  0.50000500000E+01  0.51100000000E-03 0. -1.
         50    1    1    2    0    0  0.14325304262E-01 -0.16771770030E-01 -0.36736749810E-02  0.50000500000E+01  0.50000000000E+01 0.  0.
         50    1    1    2    0    0 -0.14325304262E-01  0.16771770030E-01  0.36736749810E-02  0.50000500000E+01  0.50000000000E+01 0.  0.
</event>
<event>
 4    1  0.5060607E-021  0.5000050E+01  0.7818608E-02  0.2136455E+00
        -11   -1    0    0    0    0  0.00000000000E+00  0.00000000000E+00  0.50000499739E+01  0.50000500000E+01  0.51100000000E-03 0. -1.
         11   -1    0    0    0    0 -0.00000000000E+00 -0.00000000000E+00 -0.50000499739E+01  0.50000500000E+01  0.51100000000E-03 0.  1.
         50    1    1    2    0    0  0.45308501150E-02 -0.22936893399E-02 -0.21776429607E-01  0.50000500000E+01  0.50000000000E+01 0.  1.
         50    1    1    2    0    0 -0.45308501150E-02  0.22936893399E-02  0.21776429607E-01  0.50000500000E+01  0.50000000000E+01 0.  0.
</event>
<event>
 4    1  0.5060607E-021  0.5000050E+01  0.7818608E-02  0.2136455E+00
        -11   -1    0    0    0    0  0.00000000000E+00  0.00000000000E+00  0.50000499739E+01  0.50000500000E+01  0.51100000000E-03 0. -1.
         11   -1    0    0    0    0 -0.00000000000E+00 -0.00000000000E+00 -0.50000499739E+01  0.50000500000E+01  0.51100000000E-03 0.  1.
         50    1    1    2    0    0  0.13742315632E-01 -0.62350002384E-02  0.16500788863E-01  0.50000500000E+01  0.50000000000E+01 0.  0.
         50    1    1    2    0    0 -0.13742315632E-01  0.62350002384E-02 -0.16500788863E-01  0.50000500000E+01  0.50000000000E+01 0.  1.
</event>
<event>
 4    1  0.5060607E-021  0.5000050E+01  0.7818608E-02  0.2136455E+00
        -11   -1    0    0    0    0  0.00000000000E+00  0.00000000000E+00  0.50000499739E+01  0.50000500000E+01  0.51100000000E-03 0.  1.
         11   -1    0    0    0    0 -0.00000000000E+00 -0.00000000000E+00 -0.50000499739E+01  0.50000500000E+01  0.51100000000E-03 0. -1.
         50    1    1    2    0    0 -0.77651179266E-02  0.68389435359E-02  0.19822570340E-01  0.50000500000E+01  0.50000000000E+01 0.  1.
         50    1    1    2    0    0  0.77651179266E-02 -0.68389435359E-02 -0.19822570340E-01  0.50000500000E+01  0.50000000000E+01 0.  1.
</event>
<event>
 4    1  0.5060607E-021  0.5000050E+01  0.7818608E-02  0.2136455E+00
        -11   -1    0    0    0    0  0.00000000000E+00  0.00000000000E+00  0.50000499739E+01  0.50000500000E+01  0.51100000000E-03 0.  1.
         11   -1    0    0    0    0 -0.00000000000E+00 -0.00000000000E+00 -0.50000499739E+01  0.50000500000E+01  0.51100000000E-03 0. -1.
         50    1    1    2    0    0  0.22091282203E-01  0.18464463535E-02 -0.29271806416E-02  0.50000500000E+01  0.50000000000E+01 0.  0.
         50    1    1    2    0    0 -0.22091282203E-01 -0.18464463535E-02  0.29271806416E-02  0.50000500000E+01  0.50000000000E+01 0.  1.
</event>
<event>
 4    1  0.5060607E-021  0.5000050E+01  0.7818608E-02  0.2136455E+00
        -11   -1    0    0    0    0  0.00000000000E+00  0.00000000000E+00  0.50000499739E+01  0.50000500000E+01  0.51100000000E-03 0. -1.
         11   -1    0    0    0    0 -0.00000000000E+00 -0.00000000000E+00 -0.50000499739E+01  0.50000500000E+01  0.51100000000E-03 0.  1.
         50    1    1    2    0    0 -0.18606393217E-01 -0.12398041721E-01 -0.30527518593E-03  0.50000500000E+01  0.50000000000E+01 0.  1.
         50    1    1    2    0    0  0.18606393217E-01  0.12398041721E-01  0.30527518593E-03  0.50000500000E+01  0.50000000000E+01 0.  0.
</event>
<event>
 4    1  0.5060607E-021  0.5000050E+01  0.7818608E-02  0.2136455E+00
        -11   -1    0    0    0    0  0.00000000000E+00  0.00000000000E+00  0.50000499739E+01  0.50000500000E+01  0.51100000000E-03 0. -1.
         11   -1    0    0    0    0 -0.00000000000E+00 -0.00000000000E+00 -0.50000499739E+01  0.50000500000E+01  0.51100000000E-03 0.  1.
         50    1    1    2    0    0  0.16092973432E-01  0.62742775925E-02 -0.14200427698E-01  0.50000500000E+01  0.50000000000E+01 0.  0.
         50    1    1    2    0    0 -0.16092973432E-01 -0.62742775925E-02  0.14200427698E-01  0.50000500000E+01  0.50000000000E+01 0.  1.
</event>
<event>
 4    1  0.5060607E-021  0.5000050E+01  0.7818608E-02  0.2136455E+00
        -11   -1    0    0    0    0  0.00000000000E+00  0.00000000000E+00  0.50000499739E+01  0.50000500000E+01  0.51100000000E-03 0.  1.
         11   -1    0    0    0    0 -0.00000000000E+00 -0.00000000000E+00 -0.50000499739E+01  0.50000500000E+01  0.51100000000E-03 0. -1.
         50    1    1    2    0    0  0.32550611169E-02  0.16089314592E-01 -0.15183577743E-01  0.50000500000E+01  0.50000000000E+01 0.  1.
         50    1    1    2    0    0 -0.32550611169E-02 -0.16089314592E-01  0.15183577743E-01  0.50000500000E+01  0.50000000000E+01 0.  0.
</event>
<event>
 4    1  0.5060607E-021  0.5000050E+01  0.7818608E-02  0.2136455E+00
        -11   -1    0    0    0    0  0.00000000000E+00  0.00000000000E+00  0.50000499739E+01  0.50000500000E+01  0.51100000000E-03 0. -1.
         11   -1    0    0    0    0 -0.00000000000E+00 -0.00000000000E+00 -0.50000499739E+01  0.50000500000E+01  0.51100000000E-03 0.  1.
         50    1    1    2    0    0 -0.14337776607E-01  0.75214594376E-02 -0.15422655734E-01  0.50000500000E+01  0.50000000000E+01 0.  0.
         50    1    1    2    0    0  0.14337776607E-01 -0.75214594376E-02  0.15422655734E-01  0.50000500000E+01  0.50000000000E+01 0.  0.
</event>
<event>
 4    1  0.5060607E-021  0.5000050E+01  0.7818608E-02  0.2136455E+00
        -11   -1    0    0    0    0  0.00000000000E+00  0.00000000000E+00  0.50000499739E+01  0.50000500000E+01  0.51100000000E-03 0. -1.
         11   -1    0    0    0    0 -0.00000000000E+00 -0.00000000000E+00 -0.50000499739E+01  0.50000500000E+01  0.51100000000E-03 0.  1.
         50    1    1    2    0    0 -0.60904144488E-02 -0.18135318925E-01 -0.11576681707E-01  0.50000500000E+01  0.50000000000E+01 0.  1.
         50    1    1    2    0    0  0.60904144488E-02  0.18135318925E-01  0.11576681707E-01  0.50000500000E+01  0.50000000000E+01 0. -1.
</event>
<event>
 4    1  0.5060607E-021  0.5000050E+01  0.7818608E-02  0.2136455E+00
        -11   -1    0    0    0    0  0.00000000000E+00  0.00000000000E+00  0.50000499739E+01  0.50000500000E+01  0.51100000000E-03 0.  1.
         11   -1    0    0    0    0 -0.00000000000E+00 -0.00000000000E+00 -0.50000499739E+01  0.50000500000E+01  0.51100000000E-03 0. -1.
         50    1    1    2    0    0 -0.90055008243E-02  0.89902327725E-02  0.18386929314E-01  0.50000500000E+01  0.50000000000E+01 0.  1.
         50    1    1    2    0    0  0.90055008243E-02 -0.89902327725E-02 -0.18386929314E-01  0.50000500000E+01  0.50000000000E+01 0. -1.
</event>
<event>
 4    1  0.5060607E-021  0.5000050E+01  0.7818608E-02  0.2136455E+00
        -11   -1    0    0    0    0  0.00000000000E+00  0.00000000000E+00  0.50000499739E+01  0.50000500000E+01  0.51100000000E-03 0. -1.
         11   -1    0    0    0    0 -0.00000000000E+00 -0.00000000000E+00 -0.50000499739E+01  0.50000500000E+01  0.51100000000E-03 0.  1.
         50    1    1    2    0    0 -0.21975727118E-01  0.30999344932E-02  0.27313593252E-02  0.50000500000E+01  0.50000000000E+01 0. -1.
         50    1    1    2    0    0  0.21975727118E-01 -0.30999344932E-02 -0.27313593252E-02  0.50000500000E+01  0.50000000000E+01 0.  1.
</event>
<event>
 4    1  0.5060607E-021  0.5000050E+01  0.7818608E-02  0.2136455E+00
        -11   -1    0    0    0    0  0.00000000000E+00  0.00000000000E+00  0.50000499739E+01  0.50000500000E+01  0.51100000000E-03 0. -1.
         11   -1    0    0    0    0 -0.00000000000E+00 -0.00000000000E+00 -0.50000499739E+01  0.50000500000E+01  0.51100000000E-03 0.  1.
         50    1    1    2    0    0  0.20651603361E-01  0.26040925243E-02  0.81689950881E-02  0.50000500000E+01  0.50000000000E+01 0. -1.
         50    1    1    2    0    0 -0.20651603361E-01 -0.26040925243E-02 -0.81689950881E-02  0.50000500000E+01  0.50000000000E+01 0.  0.
</event>
<event>
 4    1  0.5060607E-021  0.5000050E+01  0.7818608E-02  0.2136455E+00
        -11   -1    0    0    0    0  0.00000000000E+00  0.00000000000E+00  0.50000499739E+01  0.50000500000E+01  0.51100000000E-03 0.  1.
         11   -1    0    0    0    0 -0.00000000000E+00 -0.00000000000E+00 -0.50000499739E+01  0.50000500000E+01  0.51100000000E-03 0. -1.
         50    1    1    2    0    0  0.32758544208E-02  0.17873799779E-01  0.13030677621E-01  0.50000500000E+01  0.50000000000E+01 0.  1.
         50    1    1    2    0    0 -0.32758544208E-02 -0.17873799779E-01 -0.13030677621E-01  0.50000500000E+01  0.50000000000E+01 0. -1.
</event>
<event>
 4    1  0.5060607E-021  0.5000050E+01  0.7818608E-02  0.2136455E+00
        -11   -1    0    0    0    0  0.00000000000E+00  0.00000000000E+00  0.50000499739E+01  0.50000500000E+01  0.51100000000E-03 0. -1.
         11   -1    0    0    0    0 -0.00000000000E+00 -0.00000000000E+00 -0.50000499739E+01  0.50000500000E+01  0.51100000000E-03 0.  1.
         50    1    1    2    0    0 -0.94098912641E-02 -0.47566832237E-02  0.19718783205E-01  0.50000500000E+01  0.50000000000E+01 0.  0.
         50    1    1    2    0    0  0.94098912641E-02  0.47566832237E-02 -0.19718783205E-01  0.50000500000E+01  0.50000000000E+01 0.  1.
</event>
<event>
 4    1  0.5060607E-021  0.5000050E+01  0.7818608E-02  0.2136455E+00
        -11   -1    0    0    0    0  0.00000000000E+00  0.00000000000E+00  0.50000499739E+01  0.50000500000E+01  0.51100000000E-03 0.  1.
         11   -1    0    0    0    0 -0.00000000000E+00 -0.00000000000E+00 -0.50000499739E+01  0.50000500000E+01  0.51100000000E-03 0. -1.
         50    1    1    2    0    0  0.94897299902E-02 -0.11313357481E-01 -0.16791529627E-01  0.50000500000E+01  0.50000000000E+01 0.  1.
         50    1    1    2    0    0 -0.94897299902E-02  0.11313357481E-01  0.16791529627E-01  0.50000500000E+01  0.50000000000E+01 0.  1.
</event>
<event>
 4    1  0.5060607E-021  0.5000050E+01  0.7818608E-02  0.2136455E+00
        -11   -1    0    0    0    0  0.00000000000E+00  0.00000000000E+00  0.50000499739E+01  0.50000500000E+01  0.51100000000E-03 0. -1.
         11   -1    0    0    0    0 -0.00000000000E+00 -0.00000000000E+00 -0.50000499739E+01  0.50000500000E+01  0.51100000000E-03 0.  1.
         50    1    1    2    0    0  0.11839654499E-01  0.18692389933E-01  0.32279467035E-02  0.50000500000E+01  0.50000000000E+01 0. -1.
         50    1    1    2    0    0 -0.11839654499E-01 -0.18692389933E-01 -0.32279467035E-02  0.50000500000E+01  0.50000000000E+01 0.  1.
</event>
<event>
 4    1  0.5060607E-021  0.5000050E+01  0.7818608E-02  0.2136455E+00
        -11   -1    0    0    0    0  0.00000000000E+00  0.00000000000E+00  0.50000499739E+01  0.50000500000E+01  0.51100000000E-03 0. -1.
         11   -1    0    0    0    0 -0.00000000000E+00 -0.00000000000E+00 -0.50000499739E+01  0.50000500000E+01  0.51100000000E-03 0.  1.
         50    1    1    2    0    0  0.18201312696E-01  0.10686446656E-01 -0.73833985396E-02  0.50000500000E+01  0.50000000000E+01 0.  1.
         50    1    1    2    0    0 -0.18201312696E-01 -0.10686446656E-01  0.73833985396E-02  0.50000500000E+01  0.50000000000E+01 0. -1.
</event>
<event>
 4    1  0.5060607E-021  0.5000050E+01  0.7818608E-02  0.2136455E+00
        -11   -1    0    0    0    0  0.00000000000E+00  0.00000000000E+00  0.50000499739E+01  0.50000500000E+01  0.51100000000E-03 0.  1.
         11   -1    0    0    0    0 -0.00000000000E+00 -0.00000000000E+00 -0.50000499739E+01  0.50000500000E+01  0.51100000000E-03 0. -1.
         50    1    1    2    0    0 -0.64023504408E-02  0.21172699555E-01  0.32755461203E-02  0.50000500000E+01  0.50000000000E+01 0. -1.
         50    1    1    2    0    0  0.64023504408E-02 -0.21172699555E-01 -0.32755461203E-02  0.50000500000E+01  0.50000000000E+01 0.  1.
</event>
<event>
 4    1  0.5060607E-021  0.5000050E+01  0.7818608E-02  0.2136455E+00
        -11   -1    0    0    0    0  0.00000000000E+00  0.00000000000E+00  0.50000499739E+01  0.50000500000E+01  0.51100000000E-03 0. -1.
         11   -1    0    0    0    0 -0.00000000000E+00 -0.00000000000E+00 -0.50000499739E+01  0.50000500000E+01  0.51100000000E-03 0.  1.
         50    1    1    2    0    0  0.67396692232E-02 -0.64609968173E-02  0.20318338487E-01  0.50000500000E+01  0.50000000000E+01 0.  0.
         50    1    1    2    0    0 -0.67396692232E-02  0.64609968173E-02 -0.20318338487E-01  0.50000500000E+01  0.50000000000E+01 0.  1.
</event>
<event>
 4    1  0.5060607E-021  0.5000050E+01  0.7818608E-02  0.2136455E+00
        -11   -1    0    0    0    0  0.00000000000E+00  0.00000000000E+00  0.50000499739E+01  0.50000500000E+01  0.51100000000E-03 0. -1.
         11   -1    0    0    0    0 -0.00000000000E+00 -0.00000000000E+00 -0.50000499739E+01  0.50000500000E+01  0.51100000000E-03 0.  1.
         50    1    1    2    0    0 -0.89172597170E-02  0.41972561265E-03  0.20501434329E-01  0.50000500000E+01  0.50000000000E+01 0.  0.
         50    1    1    2    0    0  0.89172597170E-02 -0.41972561265E-03 -0.20501434329E-01  0.50000500000E+01  0.50000000000E+01 0.  1.
</event>
<event>
 4    1  0.5060607E-021  0.5000050E+01  0.7818608E-02  0.2136455E+00
        -11   -1    0    0    0    0  0.00000000000E+00  0.00000000000E+00  0.50000499739E+01  0.50000500000E+01  0.51100000000E-03 0.  1.
         11   -1    0    0    0    0 -0.00000000000E+00 -0.00000000000E+00 -0.50000499739E+01  0.50000500000E+01  0.51100000000E-03 0. -1.
         50    1    1    2    0    0 -0.21531731428E-01 -0.94482401854E-03 -0.59577134273E-02  0.50000500000E+01  0.50000000000E+01 0. -1.
         50    1    1    2    0    0  0.21531731428E-01  0.94482401854E-03  0.59577134273E-02  0.50000500000E+01  0.50000000000E+01 0.  1.
</event>
<event>
 4    1  0.5060607E-021  0.5000050E+01  0.7818608E-02  0.2136455E+00
        -11   -1    0    0    0    0  0.00000000000E+00  0.00000000000E+00  0.50000499739E+01  0.50000500000E+01  0.51100000000E-03 0. -1.
         11   -1    0    0    0    0 -0.00000000000E+00 -0.00000000000E+00 -0.50000499739E+01  0.50000500000E+01  0.51100000000E-03 0.  1.
         50    1    1    2    0    0  0.17445035255E-01  0.13940742205E-01 -0.11528016787E-02  0.50000500000E+01  0.50000000000E+01 0.  0.
         50    1    1    2    0    0 -0.17445035255E-01 -0.13940742205E-01  0.11528016787E-02  0.50000500000E+01  0.50000000000E+01 0.  1.
</event>
<event>
 4    1  0.5060607E-021  0.5000050E+01  0.7818608E-02  0.2136455E+00
        -11   -1    0    0    0    0  0.00000000000E+00  0.00000000000E+00  0.50000499739E+01  0.50000500000E+01  0.51100000000E-03 0. -1.
         11   -1    0    0    0    0 -0.00000000000E+00 -0.00000000000E+00 -0.50000499739E+01  0.50000500000E+01  0.51100000000E-03 0.  1.
         50    1    1    2    0    0 -0.16818676949E-01 -0.14054038432E-01 -0.44292899502E-02  0.50000500000E+01  0.50000000000E+01 0. -1.
         50    1    1    2    0    0  0.16818676949E-01  0.14054038432E-01  0.44292899502E-02  0.50000500000E+01  0.50000000000E+01 0.  1.
</event>
<event>
 4    1  0.5060607E-021  0.5000050E+01  0.7818608E-02  0.2136455E+00
        -11   -1    0    0    0    0  0.00000000000E+00  0.00000000000E+00  0.50000499739E+01  0.50000500000E+01  0.51100000000E-03 0.  1.
         11   -1    0    0    0    0 -0.00000000000E+00 -0.00000000000E+00 -0.50000499739E+01  0.50000500000E+01  0.51100000000E-03 0. -1.
         50    1    1    2    0    0  0.20145718445E-01 -0.47349419506E-02 -0.84695249600E-02  0.50000500000E+01  0.50000000000E+01 0.  0.
         50    1    1    2    0    0 -0.20145718445E-01  0.47349419506E-02  0.84695249600E-02  0.50000500000E+01  0.50000000000E+01 0. -1.
</event>
<event>
 4    1  0.5060607E-021  0.5000050E+01  0.7818608E-02  0.2136455E+00
        -11   -1    0    0    0    0  0.00000000000E+00  0.00000000000E+00  0.50000499739E+01  0.50000500000E+01  0.51100000000E-03 0.  1.
         11   -1    0    0    0    0 -0.00000000000E+00 -0.00000000000E+00 -0.50000499739E+01  0.50000500000E+01  0.51100000000E-03 0. -1.
         50    1    1    2    0    0  0.64279321422E-02  0.18627320947E-01 -0.10569158090E-01  0.50000500000E+01  0.50000000000E+01 0. -1.
         50    1    1    2    0    0 -0.64279321422E-02 -0.18627320947E-01  0.10569158090E-01  0.50000500000E+01  0.50000000000E+01 0.  1.
</event>
<event>
 4    1  0.5060607E-021  0.5000050E+01  0.7818608E-02  0.2136455E+00
        -11   -1    0    0    0    0  0.00000000000E+00  0.00000000000E+00  0.50000499739E+01  0.50000500000E+01  0.51100000000E-03 0. -1.
         11   -1    0    0    0    0 -0.00000000000E+00 -0.00000000000E+00 -0.50000499739E+01  0.50000500000E+01  0.51100000000E-03 0.  1.
         50    1    1    2    0    0  0.12584281198E-01  0.16628805054E-01 -0.80697713218E-02  0.50000500000E+01  0.50000000000E+01 0.  1.
         50    1    1    2    0    0 -0.12584281198E-01 -0.16628805054E-01  0.80697713218E-02  0.50000500000E+01  0.50000000000E+01 0.  1.
</event>
<event>
 4    1  0.5060607E-021  0.5000050E+01  0.7818608E-02  0.2136455E+00
        -11   -1    0    0    0    0  0.00000000000E+00  0.00000000000E+00  0.50000499739E+01  0.50000500000E+01  0.51100000000E-03 0. -1.
         11   -1    0    0    0    0 -0.00000000000E+00 -0.00000000000E+00 -0.50000499739E+01  0.50000500000E+01  0.51100000000E-03 0.  1.
         50    1    1    2    0    0  0.34115659722E-03  0.20583942354E-01  0.87285410766E-02  0.50000500000E+01  0.50000000000E+01 0.  0.
         50    1    1    2    0    0 -0.34115659722E-03 -0.20583942354E-01 -0.87285410766E-02  0.50000500000E+01  0.50000000000E+01 0.  0.
</event>
<event>
 4    1  0.5060607E-021  0.5000050E+01  0.7818608E-02  0.2136455E+00
        -11   -1    0    0    0    0  0.00000000000E+00  0.00000000000E+00  0.50000499739E+01  0.50000500000E+01  0.51100000000E-03 0.  1.
         11   -1    0    0    0    0 -0.00000000000E+00 -0.00000000000E+00 -0.50000499739E+01  0.50000500000E+01  0.51100000000E-03 0. -1.
         50    1    1    2    0    0 -0.29850869953E-02  0.88103456394E-04  0.22160415010E-01  0.50000500000E+01  0.50000000000E+01 0.  0.
         50    1    1    2    0    0  0.29850869953E-02 -0.88103456394E-04 -0.22160415010E-01  0.50000500000E+01  0.50000000000E+01 0. -1.
</event>
<event>
 4    1  0.5060607E-021  0.5000050E+01  0.7818608E-02  0.2136455E+00
        -11   -1    0    0    0    0  0.00000000000E+00  0.00000000000E+00  0.50000499739E+01  0.50000500000E+01  0.51100000000E-03 0.  1.
         11   -1    0    0    0    0 -0.00000000000E+00 -0.00000000000E+00 -0.50000499739E+01  0.50000500000E+01  0.51100000000E-03 0. -1.
         50    1    1    2    0    0  0.50365952435E-03  0.48758779357E-02  0.21816843068E-01  0.50000500000E+01  0.50000000000E+01 0.  1.
         50    1    1    2    0    0 -0.50365952435E-03 -0.48758779357E-02 -0.21816843068E-01  0.50000500000E+01  0.50000000000E+01 0.  0.
</event>
<event>
 4    1  0.5060607E-021  0.5000050E+01  0.7818608E-02  0.2136455E+00
        -11   -1    0    0    0    0  0.00000000000E+00  0.00000000000E+00  0.50000499739E+01  0.50000500000E+01  0.51100000000E-03 0. -1.
         11   -1    0    0    0    0 -0.00000000000E+00 -0.00000000000E+00 -0.50000499739E+01  0.50000500000E+01  0.51100000000E-03 0.  1.
         50    1    1    2    0    0 -0.37913957810E-02  0.22029877838E-01 -0.55883848641E-03  0.50000500000E+01  0.50000000000E+01 0.  1.
         50    1    1    2    0    0  0.37913957810E-02 -0.22029877838E-01  0.55883848641E-03  0.50000500000E+01  0.50000000000E+01 0. -1.
</event>
<event>
 4    1  0.5060607E-021  0.5000050E+01  0.7818608E-02  0.2136455E+00
        -11   -1    0    0    0    0  0.00000000000E+00  0.00000000000E+00  0.50000499739E+01  0.50000500000E+01  0.51100000000E-03 0. -1.
         11   -1    0    0    0    0 -0.00000000000E+00 -0.00000000000E+00 -0.50000499739E+01  0.50000500000E+01  0.51100000000E-03 0.  1.
         50    1    1    2    0    0  0.97121722029E-02 -0.20701568437E-02  0.20034736378E-01  0.50000500000E+01  0.50000000000E+01 0. -1.
         50    1    1    2    0    0 -0.97121722029E-02  0.20701568437E-02 -0.20034736378E-01  0.50000500000E+01  0.50000000000E+01 0.  1.
</event>
<event>
 4    1  0.5060607E-021  0.5000050E+01  0.7818608E-02  0.2136455E+00
        -11   -1    0    0    0    0  0.00000000000E+00  0.00000000000E+00  0.50000499739E+01  0.50000500000E+01  0.51100000000E-03 0.  1.
         11   -1    0    0    0    0 -0.00000000000E+00 -0.00000000000E+00 -0.50000499739E+01  0.50000500000E+01  0.51100000000E-03 0. -1.
         50    1    1    2    0    0 -0.16495753544E-01  0.11988878074E-02  0.15048431249E-01  0.50000500000E+01  0.50000000000E+01 0.  1.
         50    1    1    2    0    0  0.16495753544E-01 -0.11988878074E-02 -0.15048431249E-01  0.50000500000E+01  0.50000000000E+01 0. -1.
</event>
<event>
 4    1  0.5060607E-021  0.5000050E+01  0.7818608E-02  0.2136455E+00
        -11   -1    0    0    0    0  0.00000000000E+00  0.00000000000E+00  0.50000499739E+01  0.50000500000E+01  0.51100000000E-03 0.  1.
         11   -1    0    0    0    0 -0.00000000000E+00 -0.00000000000E+00 -0.50000499739E+01  0.50000500000E+01  0.51100000000E-03 0. -1.
         50    1    1    2    0    0 -0.97001810016E-02 -0.15853257312E-02 -0.20084713861E-01  0.50000500000E+01  0.50000000000E+01 0.  0.
         50    1    1    2    0    0  0.97001810016E-02  0.15853257312E-02  0.20084713861E-01  0.50000500000E+01  0.50000000000E+01 0.  0.
</event>
<event>
 4    1  0.5060607E-021  0.5000050E+01  0.7818608E-02  0.2136455E+00
        -11   -1    0    0    0    0  0.00000000000E+00  0.00000000000E+00  0.50000499739E+01  0.50000500000E+01  0.51100000000E-03 0.  1.
         11   -1    0    0    0    0 -0.00000000000E+00 -0.00000000000E+00 -0.50000499739E+01  0.50000500000E+01  0.51100000000E-03 0. -1.
         50    1    1    2    0    0 -0.10375986537E-01  0.17033152759E-01 -0.10110049973E-01  0.50000500000E+01  0.50000000000E+01 0.  0.
         50    1    1    2    0    0  0.10375986537E-01 -0.17033152759E-01  0.10110049973E-01  0.50000500000E+01  0.50000000000E+01 0. -1.
</event>
<event>
 4    1  0.5060607E-021  0.5000050E+01  0.7818608E-02  0.2136455E+00
        -11   -1    0    0    0    0  0.00000000000E+00  0.00000000000E+00  0.50000499739E+01  0.50000500000E+01  0.51100000000E-03 0.  1.
         11   -1    0    0    0    0 -0.00000000000E+00 -0.00000000000E+00 -0.50000499739E+01  0.50000500000E+01  0.51100000000E-03 0. -1.
         50    1    1    2    0    0 -0.20554695743E-01  0.75739319862E-02  0.44880438038E-02  0.50000500000E+01  0.50000000000E+01 0.  1.
         50    1    1    2    0    0  0.20554695743E-01 -0.75739319862E-02 -0.44880438038E-02  0.50000500000E+01  0.50000000000E+01 0. -1.
</event>
<event>
 4    1  0.5060607E-021  0.5000050E+01  0.7818608E-02  0.2136455E+00
        -11   -1    0    0    0    0  0.00000000000E+00  0.00000000000E+00  0.50000499739E+01  0.50000500000E+01  0.51100000000E-03 0. -1.
         11   -1    0    0    0    0 -0.00000000000E+00 -0.00000000000E+00 -0.50000499739E+01  0.50000500000E+01  0.51100000000E-03 0.  1.
         50    1    1    2    0    0  0.18225815618E-01  0.12954497770E-01 -0.55969426037E-04  0.50000500000E+01  0.50000000000E+01 0.  0.
         50    1    1    2    0    0 -0.18225815618E-01 -0.12954497770E-01  0.55969426037E-04  0.50000500000E+01  0.50000000000E+01 0. -1.
</event>
<event>
 4    1  0.5060607E-021  0.5000050E+01  0.7818608E-02  0.2136455E+00
        -11   -1    0    0    0    0  0.00000000000E+00  0.00000000000E+00  0.50000499739E+01  0.50000500000E+01  0.51100000000E-03 0.  1.
         11   -1    0    0    0    0 -0.00000000000E+00 -0.00000000000E+00 -0.50000499739E+01  0.50000500000E+01  0.51100000000E-03 0. -1.
         50    1    1    2    0    0  0.22162879547E-01 -0.29278852768E-02 -0.48657781109E-03  0.50000500000E+01  0.50000000000E+01 0. -1.
         50    1    1    2    0    0 -0.22162879547E-01  0.29278852768E-02  0.48657781109E-03  0.50000500000E+01  0.50000000000E+01 0.  1.
</event>
<event>
 4    1  0.5060607E-021  0.5000050E+01  0.7818608E-02  0.2136455E+00
        -11   -1    0    0    0    0  0.00000000000E+00  0.00000000000E+00  0.50000499739E+01  0.50000500000E+01  0.51100000000E-03 0.  1.
         11   -1    0    0    0    0 -0.00000000000E+00 -0.00000000000E+00 -0.50000499739E+01  0.50000500000E+01  0.51100000000E-03 0. -1.
         50    1    1    2    0    0 -0.18603922954E-01  0.26887200932E-02  0.12110629008E-01  0.50000500000E+01  0.50000000000E+01 0.  0.
         50    1    1    2    0    0  0.18603922954E-01 -0.26887200932E-02 -0.12110629008E-01  0.50000500000E+01  0.50000000000E+01 0.  0.
</event>
<event>
 4    1  0.5060607E-021  0.5000050E+01  0.7818608E-02  0.2136455E+00
        -11   -1    0    0    0    0  0.00000000000E+00  0.00000000000E+00  0.50000499739E+01  0.50000500000E+01  0.51100000000E-03 0. -1.
         11   -1    0    0    0    0 -0.00000000000E+00 -0.00000000000E+00 -0.50000499739E+01  0.50000500000E+01  0.51100000000E-03 0.  1.
         50    1    1    2    0    0 -0.69273016897E-02  0.18365552009E-01 -0.10710811861E-01  0.50000500000E+01  0.50000000000E+01 0.  0.
         50    1    1    2    0    0  0.69273016897E-02 -0.18365552009E-01  0.10710811861E-01  0.50000500000E+01  0.50000000000E+01 0.  1.
</event>
<event>
 4    1  0.5060607E-021  0.5000050E+01  0.7818608E-02  0.2136455E+00
        -11   -1    0    0    0    0  0.00000000000E+00  0.00000000000E+00  0.50000499739E+01  0.50000500000E+01  0.51100000000E-03 0. -1.
         11   -1    0    0    0    0 -0.00000000000E+00 -0.00000000000E+00 -0.50000499739E+01  0.50000500000E+01  0.51100000000E-03 0.  1.
         50    1    1    2    0    0 -0.68669690043E-02  0.20366981594E-01 -0.61671141906E-02  0.50000500000E+01  0.50000000000E+01 0. -1.
         50    1    1    2    0    0  0.68669690043E-02 -0.20366981594E-01  0.61671141906E-02  0.50000500000E+01  0.50000000000E+01 0.  1.
</event>
<event>
 4    1  0.5060607E-021  0.5000050E+01  0.7818608E-02  0.2136455E+00
        -11   -1    0    0    0    0  0.00000000000E+00  0.00000000000E+00  0.50000499739E+01  0.50000500000E+01  0.51100000000E-03 0.  1.
         11   -1    0    0    0    0 -0.00000000000E+00 -0.00000000000E+00 -0.50000499739E+01  0.50000500000E+01  0.51100000000E-03 0. -1.
         50    1    1    2    0    0  0.37581791850E-03  0.73835692234E-02 -0.21103179059E-01  0.50000500000E+01  0.50000000000E+01 0. -1.
         50    1    1    2    0    0 -0.37581791850E-03 -0.73835692234E-02  0.21103179059E-01  0.50000500000E+01  0.50000000000E+01 0.  0.
</event>
<event>
 4    1  0.5060607E-021  0.5000050E+01  0.7818608E-02  0.2136455E+00
        -11   -1    0    0    0    0  0.00000000000E+00  0.00000000000E+00  0.50000499739E+01  0.50000500000E+01  0.51100000000E-03 0. -1.
         11   -1    0    0    0    0 -0.00000000000E+00 -0.00000000000E+00 -0.50000499739E+01  0.50000500000E+01  0.51100000000E-03 0.  1.
         50    1    1    2    0    0 -0.12226127660E-01 -0.10122065833E-01 -0.15750177324E-01  0.50000500000E+01  0.50000000000E+01 0.  1.
         50    1    1    2    0    0  0.12226127660E-01  0.10122065833E-01  0.15750177324E-01  0.50000500000E+01  0.50000000000E+01 0. -1.
</event>
<event>
 4    1  0.5060607E-021  0.5000050E+01  0.7818608E-02  0.2136455E+00
        -11   -1    0    0    0    0  0.00000000000E+00  0.00000000000E+00  0.50000499739E+01  0.50000500000E+01  0.51100000000E-03 0.  1.
         11   -1    0    0    0    0 -0.00000000000E+00 -0.00000000000E+00 -0.50000499739E+01  0.50000500000E+01  0.51100000000E-03 0. -1.
         50    1    1    2    0    0  0.17345613024E-01  0.63107346161E-02 -0.12621681244E-01  0.50000500000E+01  0.50000000000E+01 0.  0.
         50    1    1    2    0    0 -0.17345613024E-01 -0.63107346161E-02  0.12621681244E-01  0.50000500000E+01  0.50000000000E+01 0. -1.
</event>
<event>
 4    1  0.5060607E-021  0.5000050E+01  0.7818608E-02  0.2136455E+00
        -11   -1    0    0    0    0  0.00000000000E+00  0.00000000000E+00  0.50000499739E+01  0.50000500000E+01  0.51100000000E-03 0. -1.
         11   -1    0    0    0    0 -0.00000000000E+00 -0.00000000000E+00 -0.50000499739E+01  0.50000500000E+01  0.51100000000E-03 0.  1.
         50    1    1    2    0    0 -0.19565967898E-01 -0.10767133703E-01 -0.11154514871E-02  0.50000500000E+01  0.50000000000E+01 0. -1.
         50    1    1    2    0    0  0.19565967898E-01  0.10767133703E-01  0.11154514871E-02  0.50000500000E+01  0.50000000000E+01 0.  1.
</event>
<event>
 4    1  0.5060607E-021  0.5000050E+01  0.7818608E-02  0.2136455E+00
        -11   -1    0    0    0    0  0.00000000000E+00  0.00000000000E+00  0.50000499739E+01  0.50000500000E+01  0.51100000000E-03 0. -1.
         11   -1    0    0    0    0 -0.00000000000E+00 -0.00000000000E+00 -0.50000499739E+01  0.50000500000E+01  0.51100000000E-03 0.  1.
         50    1    1    2    0    0  0.14461656925E-01 -0.16699946545E-01 -0.34604572478E-02  0.50000500000E+01  0.50000000000E+01 0.  1.
         50    1    1    2    0    0 -0.14461656925E-01  0.16699946545E-01  0.34604572478E-02  0.50000500000E+01  0.50000000000E+01 0. -1.
</event>
<event>
 4    1  0.5060607E-021  0.5000050E+01  0.7818608E-02  0.2136455E+00
        -11   -1    0    0    0    0  0.00000000000E+00  0.00000000000E+00  0.50000499739E+01  0.50000500000E+01  0.51100000000E-03 0. -1.
         11   -1    0    0    0    0 -0.00000000000E+00 -0.00000000000E+00 -0.50000499739E+01  0.50000500000E+01  0.51100000000E-03 0.  1.
         50    1    1    2    0    0 -0.94333743520E-02 -0.16272125910E-01 -0.12092636880E-01  0.50000500000E+01  0.50000000000E+01 0.  1.
         50    1    1    2    0    0  0.94333743520E-02  0.16272125910E-01  0.12092636880E-01  0.50000500000E+01  0.50000000000E+01 0. -1.
</event>
<event>
 4    1  0.5060607E-021  0.5000050E+01  0.7818608E-02  0.2136455E+00
        -11   -1    0    0    0    0  0.00000000000E+00  0.00000000000E+00  0.50000499739E+01  0.50000500000E+01  0.51100000000E-03 0. -1.
         11   -1    0    0    0    0 -0.00000000000E+00 -0.00000000000E+00 -0.50000499739E+01  0.50000500000E+01  0.51100000000E-03 0.  1.
         50    1    1    2    0    0 -0.22296279430E-01 -0.17427927116E-03 -0.16876167578E-02  0.50000500000E+01  0.50000000000E+01 0. -1.
         50    1    1    2    0    0  0.22296279430E-01  0.17427927116E-03  0.16876167578E-02  0.50000500000E+01  0.50000000000E+01 0.  1.
</event>
<event>
 4    1  0.5060607E-021  0.5000050E+01  0.7818608E-02  0.2136455E+00
        -11   -1    0    0    0    0  0.00000000000E+00  0.00000000000E+00  0.50000499739E+01  0.50000500000E+01  0.51100000000E-03 0. -1.
         11   -1    0    0    0    0 -0.00000000000E+00 -0.00000000000E+00 -0.50000499739E+01  0.50000500000E+01  0.51100000000E-03 0.  1.
         50    1    1    2    0    0  0.15969378386E-01 -0.15358862640E-01 -0.30144306887E-02  0.50000500000E+01  0.50000000000E+01 0.  0.
         50    1    1    2    0    0 -0.15969378386E-01  0.15358862640E-01  0.30144306887E-02  0.50000500000E+01  0.50000000000E+01 0.  1.
</event>
<event>
 4    1  0.5060607E-021  0.5000050E+01  0.7818608E-02  0.2136455E+00
        -11   -1    0    0    0    0  0.00000000000E+00  0.00000000000E+00  0.50000499739E+01  0.50000500000E+01  0.51100000000E-03 0. -1.
         11   -1    0    0    0    0 -0.00000000000E+00 -0.00000000000E+00 -0.50000499739E+01  0.50000500000E+01  0.51100000000E-03 0.  1.
         50    1    1    2    0    0  0.20832355789E-01 -0.70423001970E-02  0.40523400931E-02  0.50000500000E+01  0.50000000000E+01 0. -1.
         50    1    1    2    0    0 -0.20832355789E-01  0.70423001970E-02 -0.40523400931E-02  0.50000500000E+01  0.50000000000E+01 0.  1.
</event>
<event>
 4    1  0.5060607E-021  0.5000050E+01  0.7818608E-02  0.2136455E+00
        -11   -1    0    0    0    0  0.00000000000E+00  0.00000000000E+00  0.50000499739E+01  0.50000500000E+01  0.51100000000E-03 0. -1.
         11   -1    0    0    0    0 -0.00000000000E+00 -0.00000000000E+00 -0.50000499739E+01  0.50000500000E+01  0.51100000000E-03 0.  1.
         50    1    1    2    0    0  0.45115493830E-02  0.19550196065E-01 -0.98710818043E-02  0.50000500000E+01  0.50000000000E+01 0.  1.
         50    1    1    2    0    0 -0.45115493830E-02 -0.19550196065E-01  0.98710818043E-02  0.50000500000E+01  0.50000000000E+01 0. -1.
</event>
<event>
 4    1  0.5060607E-021  0.5000050E+01  0.7818608E-02  0.2136455E+00
        -11   -1    0    0    0    0  0.00000000000E+00  0.00000000000E+00  0.50000499739E+01  0.50000500000E+01  0.51100000000E-03 0.  1.
         11   -1    0    0    0    0 -0.00000000000E+00 -0.00000000000E+00 -0.50000499739E+01  0.50000500000E+01  0.51100000000E-03 0. -1.
         50    1    1    2    0    0  0.13499930996E-01  0.15294326877E-01 -0.91563053947E-02  0.50000500000E+01  0.50000000000E+01 0.  1.
         50    1    1    2    0    0 -0.13499930996E-01 -0.15294326877E-01  0.91563053947E-02  0.50000500000E+01  0.50000000000E+01 0.  0.
</event>
<event>
 4    1  0.5060607E-021  0.5000050E+01  0.7818608E-02  0.2136455E+00
        -11   -1    0    0    0    0  0.00000000000E+00  0.00000000000E+00  0.50000499739E+01  0.50000500000E+01  0.51100000000E-03 0. -1.
         11   -1    0    0    0    0 -0.00000000000E+00 -0.00000000000E+00 -0.50000499739E+01  0.50000500000E+01  0.51100000000E-03 0.  1.
         50    1    1    2    0    0  0.21098774989E-01  0.13356275143E-03 -0.74044820846E-02  0.50000500000E+01  0.50000000000E+01 0. -1.
         50    1    1    2    0    0 -0.21098774989E-01 -0.13356275143E-03  0.74044820846E-02  0.50000500000E+01  0.50000000000E+01 0.  0.
</event>
<event>
 4    1  0.5060607E-021  0.5000050E+01  0.7818608E-02  0.2136455E+00
        -11   -1    0    0    0    0  0.00000000000E+00  0.00000000000E+00  0.50000499739E+01  0.50000500000E+01  0.51100000000E-03 0. -1.
         11   -1    0    0    0    0 -0.00000000000E+00 -0.00000000000E+00 -0.50000499739E+01  0.50000500000E+01  0.51100000000E-03 0.  1.
         50    1    1    2    0    0  0.15377535440E-01 -0.15772965545E-01  0.38402423992E-02  0.50000500000E+01  0.50000000000E+01 0. -1.
         50    1    1    2    0    0 -0.15377535440E-01  0.15772965545E-01 -0.38402423992E-02  0.50000500000E+01  0.50000000000E+01 0.  1.
</event>
<event>
 4    1  0.5060607E-021  0.5000050E+01  0.7818608E-02  0.2136455E+00
        -11   -1    0    0    0    0  0.00000000000E+00  0.00000000000E+00  0.50000499739E+01  0.50000500000E+01  0.51100000000E-03 0. -1.
         11   -1    0    0    0    0 -0.00000000000E+00 -0.00000000000E+00 -0.50000499739E+01  0.50000500000E+01  0.51100000000E-03 0.  1.
         50    1    1    2    0    0  0.91925334280E-02 -0.20043656426E-01  0.37083239153E-02  0.50000500000E+01  0.50000000000E+01 0.  0.
         50    1    1    2    0    0 -0.91925334280E-02  0.20043656426E-01 -0.37083239153E-02  0.50000500000E+01  0.50000000000E+01 0. -1.
</event>
<event>
 4    1  0.5060607E-021  0.5000050E+01  0.7818608E-02  0.2136455E+00
        -11   -1    0    0    0    0  0.00000000000E+00  0.00000000000E+00  0.50000499739E+01  0.50000500000E+01  0.51100000000E-03 0.  1.
         11   -1    0    0    0    0 -0.00000000000E+00 -0.00000000000E+00 -0.50000499739E+01  0.50000500000E+01  0.51100000000E-03 0. -1.
         50    1    1    2    0    0 -0.13366936019E-01 -0.27689523405E-03 -0.17923472055E-01  0.50000500000E+01  0.50000000000E+01 0.  0.
         50    1    1    2    0    0  0.13366936019E-01  0.27689523405E-03  0.17923472055E-01  0.50000500000E+01  0.50000000000E+01 0.  0.
</event>
<event>
 4    1  0.5060607E-021  0.5000050E+01  0.7818608E-02  0.2136455E+00
        -11   -1    0    0    0    0  0.00000000000E+00  0.00000000000E+00  0.50000499739E+01  0.50000500000E+01  0.51100000000E-03 0.  1.
         11   -1    0    0    0    0 -0.00000000000E+00 -0.00000000000E+00 -0.50000499739E+01  0.50000500000E+01  0.51100000000E-03 0. -1.
         50    1    1    2    0    0  0.18356620402E-01 -0.12702900817E-01 -0.12935602995E-02  0.50000500000E+01  0.50000000000E+01 0.  0.
         50    1    1    2    0    0 -0.18356620402E-01  0.12702900817E-01  0.12935602995E-02  0.50000500000E+01  0.50000000000E+01 0. -1.
</event>
<event>
 4    1  0.5060607E-021  0.5000050E+01  0.7818608E-02  0.2136455E+00
        -11   -1    0    0    0    0  0.00000000000E+00  0.00000000000E+00  0.50000499739E+01  0.50000500000E+01  0.51100000000E-03 0.  1.
         11   -1    0    0    0    0 -0.00000000000E+00 -0.00000000000E+00 -0.50000499739E+01  0.50000500000E+01  0.51100000000E-03 0. -1.
         50    1    1    2    0    0  0.89253375758E-03  0.22331643698E-01  0.70962894932E-03  0.50000500000E+01  0.50000000000E+01 0.  1.
         50    1    1    2    0    0 -0.89253375758E-03 -0.22331643698E-01 -0.70962894932E-03  0.50000500000E+01  0.50000000000E+01 0. -1.
</event>
<event>
 4    1  0.5060607E-021  0.5000050E+01  0.7818608E-02  0.2136455E+00
        -11   -1    0    0    0    0  0.00000000000E+00  0.00000000000E+00  0.50000499739E+01  0.50000500000E+01  0.51100000000E-03 0.  1.
         11   -1    0    0    0    0 -0.00000000000E+00 -0.00000000000E+00 -0.50000499739E+01  0.50000500000E+01  0.51100000000E-03 0. -1.
         50    1    1    2    0    0  0.28852942257E-02 -0.10933732222E-01 -0.19290699234E-01  0.50000500000E+01  0.50000000000E+01 0. -1.
         50    1    1    2    0    0 -0.28852942257E-02  0.10933732222E-01  0.19290699234E-01  0.50000500000E+01  0.50000000000E+01 0. -1.
</event>
<event>
 4    1  0.5060607E-021  0.5000050E+01  0.7818608E-02  0.2136455E+00
        -11   -1    0    0    0    0  0.00000000000E+00  0.00000000000E+00  0.50000499739E+01  0.50000500000E+01  0.51100000000E-03 0.  1.
         11   -1    0    0    0    0 -0.00000000000E+00 -0.00000000000E+00 -0.50000499739E+01  0.50000500000E+01  0.51100000000E-03 0. -1.
         50    1    1    2    0    0 -0.11695810197E-01  0.18953121562E-01 -0.19974250649E-02  0.50000500000E+01  0.50000000000E+01 0. -1.
         50    1    1    2    0    0  0.11695810197E-01 -0.18953121562E-01  0.19974250649E-02  0.50000500000E+01  0.50000000000E+01 0.  1.
</event>
<event>
 4    1  0.5060607E-021  0.5000050E+01  0.7818608E-02  0.2136455E+00
        -11   -1    0    0    0    0  0.00000000000E+00  0.00000000000E+00  0.50000499739E+01  0.50000500000E+01  0.51100000000E-03 0.  1.
         11   -1    0    0    0    0 -0.00000000000E+00 -0.00000000000E+00 -0.50000499739E+01  0.50000500000E+01  0.51100000000E-03 0. -1.
         50    1    1    2    0    0 -0.34053767180E-03 -0.14792759356E-01 -0.16764868169E-01  0.50000500000E+01  0.50000000000E+01 0. -1.
         50    1    1    2    0    0  0.34053767180E-03  0.14792759356E-01  0.16764868169E-01  0.50000500000E+01  0.50000000000E+01 0.  1.
</event>
<event>
 4    1  0.5060607E-021  0.5000050E+01  0.7818608E-02  0.2136455E+00
        -11   -1    0    0    0    0  0.00000000000E+00  0.00000000000E+00  0.50000499739E+01  0.50000500000E+01  0.51100000000E-03 0. -1.
         11   -1    0    0    0    0 -0.00000000000E+00 -0.00000000000E+00 -0.50000499739E+01  0.50000500000E+01  0.51100000000E-03 0.  1.
         50    1    1    2    0    0  0.27853010381E-02 -0.84613600353E-03 -0.22170445462E-01  0.50000500000E+01  0.50000000000E+01 0.  1.
         50    1    1    2    0    0 -0.27853010381E-02  0.84613600353E-03  0.22170445462E-01  0.50000500000E+01  0.50000000000E+01 0.  0.
</event>
<event>
 4    1  0.5060607E-021  0.5000050E+01  0.7818608E-02  0.2136455E+00
        -11   -1    0    0    0    0  0.00000000000E+00  0.00000000000E+00  0.50000499739E+01  0.50000500000E+01  0.51100000000E-03 0. -1.
         11   -1    0    0    0    0 -0.00000000000E+00 -0.00000000000E+00 -0.50000499739E+01  0.50000500000E+01  0.51100000000E-03 0.  1.
         50    1    1    2    0    0  0.94272291622E-02 -0.14527746678E-01 -0.14144766763E-01  0.50000500000E+01  0.50000000000E+01 0. -1.
         50    1    1    2    0    0 -0.94272291622E-02  0.14527746678E-01  0.14144766763E-01  0.50000500000E+01  0.50000000000E+01 0. -1.
</event>
<event>
 4    1  0.5060607E-021  0.5000050E+01  0.7818608E-02  0.2136455E+00
        -11   -1    0    0    0    0  0.00000000000E+00  0.00000000000E+00  0.50000499739E+01  0.50000500000E+01  0.51100000000E-03 0. -1.
         11   -1    0    0    0    0 -0.00000000000E+00 -0.00000000000E+00 -0.50000499739E+01  0.50000500000E+01  0.51100000000E-03 0.  1.
         50    1    1    2    0    0  0.13903755325E-01  0.48798934114E-02  0.16818880110E-01  0.50000500000E+01  0.50000000000E+01 0.  0.
         50    1    1    2    0    0 -0.13903755325E-01 -0.48798934114E-02 -0.16818880110E-01  0.50000500000E+01  0.50000000000E+01 0.  0.
</event>
<event>
 4    1  0.5060607E-021  0.5000050E+01  0.7818608E-02  0.2136455E+00
        -11   -1    0    0    0    0  0.00000000000E+00  0.00000000000E+00  0.50000499739E+01  0.50000500000E+01  0.51100000000E-03 0. -1.
         11   -1    0    0    0    0 -0.00000000000E+00 -0.00000000000E+00 -0.50000499739E+01  0.50000500000E+01  0.51100000000E-03 0.  1.
         50    1    1    2    0    0 -0.70998242914E-02 -0.35812029021E-02  0.20899042581E-01  0.50000500000E+01  0.50000000000E+01 0.  0.
         50    1    1    2    0    0  0.70998242914E-02  0.35812029021E-02 -0.20899042581E-01  0.50000500000E+01  0.50000000000E+01 0.  0.
</event>
<event>
 4    1  0.5060607E-021  0.5000050E+01  0.7818608E-02  0.2136455E+00
        -11   -1    0    0    0    0  0.00000000000E+00  0.00000000000E+00  0.50000499739E+01  0.50000500000E+01  0.51100000000E-03 0.  1.
         11   -1    0    0    0    0 -0.00000000000E+00 -0.00000000000E+00 -0.50000499739E+01  0.50000500000E+01  0.51100000000E-03 0. -1.
         50    1    1    2    0    0  0.13019342092E-01 -0.43458616066E-02 -0.17652555577E-01  0.50000500000E+01  0.50000000000E+01 0.  1.
         50    1    1    2    0    0 -0.13019342092E-01  0.43458616066E-02  0.17652555577E-01  0.50000500000E+01  0.50000000000E+01 0.  0.
</event>
<event>
 4    1  0.5060607E-021  0.5000050E+01  0.7818608E-02  0.2136455E+00
        -11   -1    0    0    0    0  0.00000000000E+00  0.00000000000E+00  0.50000499739E+01  0.50000500000E+01  0.51100000000E-03 0. -1.
         11   -1    0    0    0    0 -0.00000000000E+00 -0.00000000000E+00 -0.50000499739E+01  0.50000500000E+01  0.51100000000E-03 0.  1.
         50    1    1    2    0    0  0.14092747248E-01  0.48394913434E-02 -0.16672621226E-01  0.50000500000E+01  0.50000000000E+01 0.  0.
         50    1    1    2    0    0 -0.14092747248E-01 -0.48394913434E-02  0.16672621226E-01  0.50000500000E+01  0.50000000000E+01 0.  0.
</event>
<event>
 4    1  0.5060607E-021  0.5000050E+01  0.7818608E-02  0.2136455E+00
        -11   -1    0    0    0    0  0.00000000000E+00  0.00000000000E+00  0.50000499739E+01  0.50000500000E+01  0.51100000000E-03 0. -1.
         11   -1    0    0    0    0 -0.00000000000E+00 -0.00000000000E+00 -0.50000499739E+01  0.50000500000E+01  0.51100000000E-03 0.  1.
         50    1    1    2    0    0  0.33022509566E-02  0.70611525788E-02 -0.20957999973E-01  0.50000500000E+01  0.50000000000E+01 0.  0.
         50    1    1    2    0    0 -0.33022509566E-02 -0.70611525788E-02  0.20957999973E-01  0.50000500000E+01  0.50000000000E+01 0. -1.
</event>
<event>
 4    1  0.5060607E-021  0.5000050E+01  0.7818608E-02  0.2136455E+00
        -11   -1    0    0    0    0  0.00000000000E+00  0.00000000000E+00  0.50000499739E+01  0.50000500000E+01  0.51100000000E-03 0.  1.
         11   -1    0    0    0    0 -0.00000000000E+00 -0.00000000000E+00 -0.50000499739E+01  0.50000500000E+01  0.51100000000E-03 0. -1.
         50    1    1    2    0    0 -0.29953043303E-02  0.10420938636E-01 -0.19555937459E-01  0.50000500000E+01  0.50000000000E+01 0.  0.
         50    1    1    2    0    0  0.29953043303E-02 -0.10420938636E-01  0.19555937459E-01  0.50000500000E+01  0.50000000000E+01 0. -1.
</event>
<event>
 4    1  0.5060607E-021  0.5000050E+01  0.7818608E-02  0.2136455E+00
        -11   -1    0    0    0    0  0.00000000000E+00  0.00000000000E+00  0.50000499739E+01  0.50000500000E+01  0.51100000000E-03 0.  1.
         11   -1    0    0    0    0 -0.00000000000E+00 -0.00000000000E+00 -0.50000499739E+01  0.50000500000E+01  0.51100000000E-03 0. -1.
         50    1    1    2    0    0 -0.21745943070E-01 -0.55147124646E-03  0.51780632921E-02  0.50000500000E+01  0.50000000000E+01 0.  1.
         50    1    1    2    0    0  0.21745943070E-01  0.55147124646E-03 -0.51780632921E-02  0.50000500000E+01  0.50000000000E+01 0.  0.
</event>
<event>
 4    1  0.5060607E-021  0.5000050E+01  0.7818608E-02  0.2136455E+00
        -11   -1    0    0    0    0  0.00000000000E+00  0.00000000000E+00  0.50000499739E+01  0.50000500000E+01  0.51100000000E-03 0. -1.
         11   -1    0    0    0    0 -0.00000000000E+00 -0.00000000000E+00 -0.50000499739E+01  0.50000500000E+01  0.51100000000E-03 0.  1.
         50    1    1    2    0    0 -0.13312707147E-01 -0.17303338034E-01  0.48341308723E-02  0.50000500000E+01  0.50000000000E+01 0. -1.
         50    1    1    2    0    0  0.13312707147E-01  0.17303338034E-01 -0.48341308723E-02  0.50000500000E+01  0.50000000000E+01 0.  0.
</event>
<event>
 4    1  0.5060607E-021  0.5000050E+01  0.7818608E-02  0.2136455E+00
        -11   -1    0    0    0    0  0.00000000000E+00  0.00000000000E+00  0.50000499739E+01  0.50000500000E+01  0.51100000000E-03 0.  1.
         11   -1    0    0    0    0 -0.00000000000E+00 -0.00000000000E+00 -0.50000499739E+01  0.50000500000E+01  0.51100000000E-03 0. -1.
         50    1    1    2    0    0 -0.90437407699E-02  0.19256793689E-01  0.68839777530E-02  0.50000500000E+01  0.50000000000E+01 0.  0.
         50    1    1    2    0    0  0.90437407699E-02 -0.19256793689E-01 -0.68839777530E-02  0.50000500000E+01  0.50000000000E+01 0.  1.
</event>
<event>
 4    1  0.5060607E-021  0.5000050E+01  0.7818608E-02  0.2136455E+00
        -11   -1    0    0    0    0  0.00000000000E+00  0.00000000000E+00  0.50000499739E+01  0.50000500000E+01  0.51100000000E-03 0. -1.
         11   -1    0    0    0    0 -0.00000000000E+00 -0.00000000000E+00 -0.50000499739E+01  0.50000500000E+01  0.51100000000E-03 0.  1.
         50    1    1    2    0    0  0.76908112422E-02  0.12109483708E-01 -0.17152676956E-01  0.50000500000E+01  0.50000000000E+01 0.  1.
         50    1    1    2    0    0 -0.76908112422E-02 -0.12109483708E-01  0.17152676956E-01  0.50000500000E+01  0.50000000000E+01 0. -1.
</event>
<event>
 4    1  0.5060607E-021  0.5000050E+01  0.7818608E-02  0.2136455E+00
        -11   -1    0    0    0    0  0.00000000000E+00  0.00000000000E+00  0.50000499739E+01  0.50000500000E+01  0.51100000000E-03 0. -1.
         11   -1    0    0    0    0 -0.00000000000E+00 -0.00000000000E+00 -0.50000499739E+01  0.50000500000E+01  0.51100000000E-03 0.  1.
         50    1    1    2    0    0 -0.43963933814E-02  0.21789641186E-01 -0.24260589930E-02  0.50000500000E+01  0.50000000000E+01 0.  1.
         50    1    1    2    0    0  0.43963933814E-02 -0.21789641186E-01  0.24260589930E-02  0.50000500000E+01  0.50000000000E+01 0.  0.
</event>
<event>
 4    1  0.5060607E-021  0.5000050E+01  0.7818608E-02  0.2136455E+00
        -11   -1    0    0    0    0  0.00000000000E+00  0.00000000000E+00  0.50000499739E+01  0.50000500000E+01  0.51100000000E-03 0.  1.
         11   -1    0    0    0    0 -0.00000000000E+00 -0.00000000000E+00 -0.50000499739E+01  0.50000500000E+01  0.51100000000E-03 0. -1.
         50    1    1    2    0    0 -0.16919043134E-01  0.88961562655E-02  0.11602020648E-01  0.50000500000E+01  0.50000000000E+01 0.  1.
         50    1    1    2    0    0  0.16919043134E-01 -0.88961562655E-02 -0.11602020648E-01  0.50000500000E+01  0.50000000000E+01 0.  1.
</event>
<event>
 4    1  0.5060607E-021  0.5000050E+01  0.7818608E-02  0.2136455E+00
        -11   -1    0    0    0    0  0.00000000000E+00  0.00000000000E+00  0.50000499739E+01  0.50000500000E+01  0.51100000000E-03 0.  1.
         11   -1    0    0    0    0 -0.00000000000E+00 -0.00000000000E+00 -0.50000499739E+01  0.50000500000E+01  0.51100000000E-03 0. -1.
         50    1    1    2    0    0  0.82536786520E-02 -0.13669117761E-01 -0.15653578132E-01  0.50000500000E+01  0.50000000000E+01 0. -1.
         50    1    1    2    0    0 -0.82536786520E-02  0.13669117761E-01  0.15653578132E-01  0.50000500000E+01  0.50000000000E+01 0.  1.
</event>
<event>
 4    1  0.5060607E-021  0.5000050E+01  0.7818608E-02  0.2136455E+00
        -11   -1    0    0    0    0  0.00000000000E+00  0.00000000000E+00  0.50000499739E+01  0.50000500000E+01  0.51100000000E-03 0.  1.
         11   -1    0    0    0    0 -0.00000000000E+00 -0.00000000000E+00 -0.50000499739E+01  0.50000500000E+01  0.51100000000E-03 0. -1.
         50    1    1    2    0    0  0.71071262278E-02  0.15231059278E-01 -0.14748087675E-01  0.50000500000E+01  0.50000000000E+01 0. -1.
         50    1    1    2    0    0 -0.71071262278E-02 -0.15231059278E-01  0.14748087675E-01  0.50000500000E+01  0.50000000000E+01 0.  1.
</event>
<event>
 4    1  0.5060607E-021  0.5000050E+01  0.7818608E-02  0.2136455E+00
        -11   -1    0    0    0    0  0.00000000000E+00  0.00000000000E+00  0.50000499739E+01  0.50000500000E+01  0.51100000000E-03 0. -1.
         11   -1    0    0    0    0 -0.00000000000E+00 -0.00000000000E+00 -0.50000499739E+01  0.50000500000E+01  0.51100000000E-03 0.  1.
         50    1    1    2    0    0  0.94445750222E-02  0.11512799285E-01 -0.16681065771E-01  0.50000500000E+01  0.50000000000E+01 0.  1.
         50    1    1    2    0    0 -0.94445750222E-02 -0.11512799285E-01  0.16681065771E-01  0.50000500000E+01  0.50000000000E+01 0. -1.
</event>
<event>
 4    1  0.5060607E-021  0.5000050E+01  0.7818608E-02  0.2136455E+00
        -11   -1    0    0    0    0  0.00000000000E+00  0.00000000000E+00  0.50000499739E+01  0.50000500000E+01  0.51100000000E-03 0. -1.
         11   -1    0    0    0    0 -0.00000000000E+00 -0.00000000000E+00 -0.50000499739E+01  0.50000500000E+01  0.51100000000E-03 0.  1.
         50    1    1    2    0    0 -0.14714110345E-01  0.16568073141E-01 -0.29994014660E-02  0.50000500000E+01  0.50000000000E+01 0. -1.
         50    1    1    2    0    0  0.14714110345E-01 -0.16568073141E-01  0.29994014660E-02  0.50000500000E+01  0.50000000000E+01 0.  0.
</event>
<event>
 4    1  0.5060607E-021  0.5000050E+01  0.7818608E-02  0.2136455E+00
        -11   -1    0    0    0    0  0.00000000000E+00  0.00000000000E+00  0.50000499739E+01  0.50000500000E+01  0.51100000000E-03 0. -1.
         11   -1    0    0    0    0 -0.00000000000E+00 -0.00000000000E+00 -0.50000499739E+01  0.50000500000E+01  0.51100000000E-03 0.  1.
         50    1    1    2    0    0  0.20692023075E-01 -0.48001418730E-03  0.84624031727E-02  0.50000500000E+01  0.50000000000E+01 0. -1.
         50    1    1    2    0    0 -0.20692023075E-01  0.48001418730E-03 -0.84624031727E-02  0.50000500000E+01  0.50000000000E+01 0.  0.
</event>
<event>
 4    1  0.5060607E-021  0.5000050E+01  0.7818608E-02  0.2136455E+00
        -11   -1    0    0    0    0  0.00000000000E+00  0.00000000000E+00  0.50000499739E+01  0.50000500000E+01  0.51100000000E-03 0.  1.
         11   -1    0    0    0    0 -0.00000000000E+00 -0.00000000000E+00 -0.50000499739E+01  0.50000500000E+01  0.51100000000E-03 0. -1.
         50    1    1    2    0    0 -0.25176530852E-02 -0.63835473915E-02 -0.21281782013E-01  0.50000500000E+01  0.50000000000E+01 0.  0.
         50    1    1    2    0    0  0.25176530852E-02  0.63835473915E-02  0.21281782013E-01  0.50000500000E+01  0.50000000000E+01 0.  1.
</event>
<event>
 4    1  0.5060607E-021  0.5000050E+01  0.7818608E-02  0.2136455E+00
        -11   -1    0    0    0    0  0.00000000000E+00  0.00000000000E+00  0.50000499739E+01  0.50000500000E+01  0.51100000000E-03 0.  1.
         11   -1    0    0    0    0 -0.00000000000E+00 -0.00000000000E+00 -0.50000499739E+01  0.50000500000E+01  0.51100000000E-03 0. -1.
         50    1    1    2    0    0  0.14122831313E-01  0.55791286075E-02  0.16414062864E-01  0.50000500000E+01  0.50000000000E+01 0.  1.
         50    1    1    2    0    0 -0.14122831313E-01 -0.55791286075E-02 -0.16414062864E-01  0.50000500000E+01  0.50000000000E+01 0.  1.
</event>
<event>
 4    1  0.5060607E-021  0.5000050E+01  0.7818608E-02  0.2136455E+00
        -11   -1    0    0    0    0  0.00000000000E+00  0.00000000000E+00  0.50000499739E+01  0.50000500000E+01  0.51100000000E-03 0.  1.
         11   -1    0    0    0    0 -0.00000000000E+00 -0.00000000000E+00 -0.50000499739E+01  0.50000500000E+01  0.51100000000E-03 0. -1.
         50    1    1    2    0    0  0.14470766404E-01  0.59099084831E-02 -0.15989759267E-01  0.50000500000E+01  0.50000000000E+01 0.  0.
         50    1    1    2    0    0 -0.14470766404E-01 -0.59099084831E-02  0.15989759267E-01  0.50000500000E+01  0.50000000000E+01 0.  1.
</event>
<event>
 4    1  0.5060607E-021  0.5000050E+01  0.7818608E-02  0.2136455E+00
        -11   -1    0    0    0    0  0.00000000000E+00  0.00000000000E+00  0.50000499739E+01  0.50000500000E+01  0.51100000000E-03 0. -1.
         11   -1    0    0    0    0 -0.00000000000E+00 -0.00000000000E+00 -0.50000499739E+01  0.50000500000E+01  0.51100000000E-03 0.  1.
         50    1    1    2    0    0  0.42287775691E-02  0.18545982383E-01  0.11754423751E-01  0.50000500000E+01  0.50000000000E+01 0.  0.
         50    1    1    2    0    0 -0.42287775691E-02 -0.18545982383E-01 -0.11754423751E-01  0.50000500000E+01  0.50000000000E+01 0. -1.
</event>
<event>
 4    1  0.5060607E-021  0.5000050E+01  0.7818608E-02  0.2136455E+00
        -11   -1    0    0    0    0  0.00000000000E+00  0.00000000000E+00  0.50000499739E+01  0.50000500000E+01  0.51100000000E-03 0. -1.
         11   -1    0    0    0    0 -0.00000000000E+00 -0.00000000000E+00 -0.50000499739E+01  0.50000500000E+01  0.51100000000E-03 0.  1.
         50    1    1    2    0    0  0.16306680918E-01  0.48551789612E-02  0.14509372650E-01  0.50000500000E+01  0.50000000000E+01 0. -1.
         50    1    1    2    0    0 -0.16306680918E-01 -0.48551789612E-02 -0.14509372650E-01  0.50000500000E+01  0.50000000000E+01 0.  1.
</event>
<event>
 4    1  0.5060607E-021  0.5000050E+01  0.7818608E-02  0.2136455E+00
        -11   -1    0    0    0    0  0.00000000000E+00  0.00000000000E+00  0.50000499739E+01  0.50000500000E+01  0.51100000000E-03 0.  1.
         11   -1    0    0    0    0 -0.00000000000E+00 -0.00000000000E+00 -0.50000499739E+01  0.50000500000E+01  0.51100000000E-03 0. -1.
         50    1    1    2    0    0 -0.64629339002E-02  0.17923554086E-01 -0.11703811103E-01  0.50000500000E+01  0.50000000000E+01 0.  0.
         50    1    1    2    0    0  0.64629339002E-02 -0.17923554086E-01  0.11703811103E-01  0.50000500000E+01  0.50000000000E+01 0. -1.
</event>
<event>
 4    1  0.5060607E-021  0.5000050E+01  0.7818608E-02  0.2136455E+00
        -11   -1    0    0    0    0  0.00000000000E+00  0.00000000000E+00  0.50000499739E+01  0.50000500000E+01  0.51100000000E-03 0.  1.
         11   -1    0    0    0    0 -0.00000000000E+00 -0.00000000000E+00 -0.50000499739E+01  0.50000500000E+01  0.51100000000E-03 0. -1.
         50    1    1    2    0    0  0.15996787403E-01 -0.15617231461E-01  0.45538363328E-03  0.50000500000E+01  0.50000000000E+01 0.  1.
         50    1    1    2    0    0 -0.15996787403E-01  0.15617231461E-01 -0.45538363328E-03  0.50000500000E+01  0.50000000000E+01 0. -1.
</event>
<event>
 4    1  0.5060607E-021  0.5000050E+01  0.7818608E-02  0.2136455E+00
        -11   -1    0    0    0    0  0.00000000000E+00  0.00000000000E+00  0.50000499739E+01  0.50000500000E+01  0.51100000000E-03 0.  1.
         11   -1    0    0    0    0 -0.00000000000E+00 -0.00000000000E+00 -0.50000499739E+01  0.50000500000E+01  0.51100000000E-03 0. -1.
         50    1    1    2    0    0  0.14190693469E-01 -0.10250042445E-01  0.13912704580E-01  0.50000500000E+01  0.50000000000E+01 0. -1.
         50    1    1    2    0    0 -0.14190693469E-01  0.10250042445E-01 -0.13912704580E-01  0.50000500000E+01  0.50000000000E+01 0.  0.
</event>
<event>
 4    1  0.5060607E-021  0.5000050E+01  0.7818608E-02  0.2136455E+00
        -11   -1    0    0    0    0  0.00000000000E+00  0.00000000000E+00  0.50000499739E+01  0.50000500000E+01  0.51100000000E-03 0. -1.
         11   -1    0    0    0    0 -0.00000000000E+00 -0.00000000000E+00 -0.50000499739E+01  0.50000500000E+01  0.51100000000E-03 0.  1.
         50    1    1    2    0    0  0.94240293115E-02  0.19135379767E-01 -0.67102468450E-02  0.50000500000E+01  0.50000000000E+01 0.  0.
         50    1    1    2    0    0 -0.94240293115E-02 -0.19135379767E-01  0.67102468450E-02  0.50000500000E+01  0.50000000000E+01 0.  1.
</event>
<event>
 4    1  0.5060607E-021  0.5000050E+01  0.7818608E-02  0.2136455E+00
        -11   -1    0    0    0    0  0.00000000000E+00  0.00000000000E+00  0.50000499739E+01  0.50000500000E+01  0.51100000000E-03 0.  1.
         11   -1    0    0    0    0 -0.00000000000E+00 -0.00000000000E+00 -0.50000499739E+01  0.50000500000E+01  0.51100000000E-03 0. -1.
         50    1    1    2    0    0  0.12696130370E-01 -0.85558939359E-02 -0.16297467674E-01  0.50000500000E+01  0.50000000000E+01 0. -1.
         50    1    1    2    0    0 -0.12696130370E-01  0.85558939359E-02  0.16297467674E-01  0.50000500000E+01  0.50000000000E+01 0.  1.
</event>
<event>
 4    1  0.5060607E-021  0.5000050E+01  0.7818608E-02  0.2136455E+00
        -11   -1    0    0    0    0  0.00000000000E+00  0.00000000000E+00  0.50000499739E+01  0.50000500000E+01  0.51100000000E-03 0.  1.
         11   -1    0    0    0    0 -0.00000000000E+00 -0.00000000000E+00 -0.50000499739E+01  0.50000500000E+01  0.51100000000E-03 0. -1.
         50    1    1    2    0    0  0.63642032318E-02 -0.21387394865E-01 -0.14417898988E-02  0.50000500000E+01  0.50000000000E+01 0.  0.
         50    1    1    2    0    0 -0.63642032318E-02  0.21387394865E-01  0.14417898988E-02  0.50000500000E+01  0.50000000000E+01 0. -1.
</event>
<event>
 4    1  0.5060607E-021  0.5000050E+01  0.7818608E-02  0.2136455E+00
        -11   -1    0    0    0    0  0.00000000000E+00  0.00000000000E+00  0.50000499739E+01  0.50000500000E+01  0.51100000000E-03 0. -1.
         11   -1    0    0    0    0 -0.00000000000E+00 -0.00000000000E+00 -0.50000499739E+01  0.50000500000E+01  0.51100000000E-03 0.  1.
         50    1    1    2    0    0  0.45865829750E-02  0.10983563855E-01  0.18929529357E-01  0.50000500000E+01  0.50000000000E+01 0. -1.
         50    1    1    2    0    0 -0.45865829750E-02 -0.10983563855E-01 -0.18929529357E-01  0.50000500000E+01  0.50000000000E+01 0.  0.
</event>
<event>
 4    1  0.5060607E-021  0.5000050E+01  0.7818608E-02  0.2136455E+00
        -11   -1    0    0    0    0  0.00000000000E+00  0.00000000000E+00  0.50000499739E+01  0.50000500000E+01  0.51100000000E-03 0. -1.
         11   -1    0    0    0    0 -0.00000000000E+00 -0.00000000000E+00 -0.50000499739E+01  0.50000500000E+01  0.51100000000E-03 0.  1.
         50    1    1    2    0    0  0.83879874874E-02 -0.19638992220E-01 -0.66297926437E-02  0.50000500000E+01  0.50000000000E+01 0. -1.
         50    1    1    2    0    0 -0.83879874874E-02  0.19638992220E-01  0.66297926437E-02  0.50000500000E+01  0.50000000000E+01 0.  0.
</event>
<event>
 4    1  0.5060607E-021  0.5000050E+01  0.7818608E-02  0.2136455E+00
        -11   -1    0    0    0    0  0.00000000000E+00  0.00000000000E+00  0.50000499739E+01  0.50000500000E+01  0.51100000000E-03 0.  1.
         11   -1    0    0    0    0 -0.00000000000E+00 -0.00000000000E+00 -0.50000499739E+01  0.50000500000E+01  0.51100000000E-03 0. -1.
         50    1    1    2    0    0  0.13113552437E-01 -0.16385580555E-01  0.77168641536E-02  0.50000500000E+01  0.50000000000E+01 0. -1.
         50    1    1    2    0    0 -0.13113552437E-01  0.16385580555E-01 -0.77168641536E-02  0.50000500000E+01  0.50000000000E+01 0.  0.
</event>
<event>
 4    1  0.5060607E-021  0.5000050E+01  0.7818608E-02  0.2136455E+00
        -11   -1    0    0    0    0  0.00000000000E+00  0.00000000000E+00  0.50000499739E+01  0.50000500000E+01  0.51100000000E-03 0. -1.
         11   -1    0    0    0    0 -0.00000000000E+00 -0.00000000000E+00 -0.50000499739E+01  0.50000500000E+01  0.51100000000E-03 0.  1.
         50    1    1    2    0    0  0.38441098116E-02  0.62222946427E-02  0.21130744642E-01  0.50000500000E+01  0.50000000000E+01 0. -1.
         50    1    1    2    0    0 -0.38441098116E-02 -0.62222946427E-02 -0.21130744642E-01  0.50000500000E+01  0.50000000000E+01 0.  0.
</event>
<event>
 4    1  0.5060607E-021  0.5000050E+01  0.7818608E-02  0.2136455E+00
        -11   -1    0    0    0    0  0.00000000000E+00  0.00000000000E+00  0.50000499739E+01  0.50000500000E+01  0.51100000000E-03 0. -1.
         11   -1    0    0    0    0 -0.00000000000E+00 -0.00000000000E+00 -0.50000499739E+01  0.50000500000E+01  0.51100000000E-03 0.  1.
         50    1    1    2    0    0 -0.12134015092E-01 -0.83063750465E-02 -0.16845542773E-01  0.50000500000E+01  0.50000000000E+01 0.  1.
         50    1    1    2    0    0  0.12134015092E-01  0.83063750465E-02  0.16845542773E-01  0.50000500000E+01  0.50000000000E+01 0.  1.
</event>
<event>
 4    1  0.5060607E-021  0.5000050E+01  0.7818608E-02  0.2136455E+00
        -11   -1    0    0    0    0  0.00000000000E+00  0.00000000000E+00  0.50000499739E+01  0.50000500000E+01  0.51100000000E-03 0. -1.
         11   -1    0    0    0    0 -0.00000000000E+00 -0.00000000000E+00 -0.50000499739E+01  0.50000500000E+01  0.51100000000E-03 0.  1.
         50    1    1    2    0    0 -0.18281220848E-01  0.12866889398E-01 -0.49256624374E-03  0.50000500000E+01  0.50000000000E+01 0.  0.
         50    1    1    2    0    0  0.18281220848E-01 -0.12866889398E-01  0.49256624374E-03  0.50000500000E+01  0.50000000000E+01 0.  1.
</event>
<event>
 4    1  0.5060607E-021  0.5000050E+01  0.7818608E-02  0.2136455E+00
        -11   -1    0    0    0    0  0.00000000000E+00  0.00000000000E+00  0.50000499739E+01  0.50000500000E+01  0.51100000000E-03 0.  1.
         11   -1    0    0    0    0 -0.00000000000E+00 -0.00000000000E+00 -0.50000499739E+01  0.50000500000E+01  0.51100000000E-03 0. -1.
         50    1    1    2    0    0  0.29137163915E-02  0.46366435643E-02  0.21679813035E-01  0.50000500000E+01  0.50000000000E+01 0.  0.
         50    1    1    2    0    0 -0.29137163915E-02 -0.46366435643E-02 -0.21679813035E-01  0.50000500000E+01  0.50000000000E+01 0. -1.
</event>
<event>
 4    1  0.5060607E-021  0.5000050E+01  0.7818608E-02  0.2136455E+00
        -11   -1    0    0    0    0  0.00000000000E+00  0.00000000000E+00  0.50000499739E+01  0.50000500000E+01  0.51100000000E-03 0. -1.
         11   -1    0    0    0    0 -0.00000000000E+00 -0.00000000000E+00 -0.50000499739E+01  0.50000500000E+01  0.51100000000E-03 0.  1.
         50    1    1    2    0    0  0.12742200483E-01  0.68935684733E-02  0.17032837126E-01  0.50000500000E+01  0.50000000000E+01 0.  0.
         50    1    1    2    0    0 -0.12742200483E-01 -0.68935684733E-02 -0.17032837126E-01  0.50000500000E+01  0.50000000000E+01 0.  0.
</event>
<event>
 4    1  0.5060607E-021  0.5000050E+01  0.7818608E-02  0.2136455E+00
        -11   -1    0    0    0    0  0.00000000000E+00  0.00000000000E+00  0.50000499739E+01  0.50000500000E+01  0.51100000000E-03 0.  1.
         11   -1    0    0    0    0 -0.00000000000E+00 -0.00000000000E+00 -0.50000499739E+01  0.50000500000E+01  0.51100000000E-03 0. -1.
         50    1    1    2    0    0  0.97829991599E-02  0.18645928714E-01  0.75249431778E-02  0.50000500000E+01  0.50000000000E+01 0.  1.
         50    1    1    2    0    0 -0.97829991599E-02 -0.18645928714E-01 -0.75249431778E-02  0.50000500000E+01  0.50000000000E+01 0. -1.
</event>
<event>
 4    1  0.5060607E-021  0.5000050E+01  0.7818608E-02  0.2136455E+00
        -11   -1    0    0    0    0  0.00000000000E+00  0.00000000000E+00  0.50000499739E+01  0.50000500000E+01  0.51100000000E-03 0. -1.
         11   -1    0    0    0    0 -0.00000000000E+00 -0.00000000000E+00 -0.50000499739E+01  0.50000500000E+01  0.51100000000E-03 0.  1.
         50    1    1    2    0    0 -0.22152303435E-01  0.48160932777E-03  0.30076577190E-02  0.50000500000E+01  0.50000000000E+01 0. -1.
         50    1    1    2    0    0  0.22152303435E-01 -0.48160932777E-03 -0.30076577190E-02  0.50000500000E+01  0.50000000000E+01 0.  1.
</event>
<event>
 4    1  0.5060607E-021  0.5000050E+01  0.7818608E-02  0.2136455E+00
        -11   -1    0    0    0    0  0.00000000000E+00  0.00000000000E+00  0.50000499739E+01  0.50000500000E+01  0.51100000000E-03 0. -1.
         11   -1    0    0    0    0 -0.00000000000E+00 -0.00000000000E+00 -0.50000499739E+01  0.50000500000E+01  0.51100000000E-03 0.  1.
         50    1    1    2    0    0  0.10164233297E-01  0.19580046314E-01 -0.36486501366E-02  0.50000500000E+01  0.50000000000E+01 0.  0.
         50    1    1    2    0    0 -0.10164233297E-01 -0.19580046314E-01  0.36486501366E-02  0.50000500000E+01  0.50000000000E+01 0. -1.
</event>
<event>
 4    1  0.5060607E-021  0.5000050E+01  0.7818608E-02  0.2136455E+00
        -11   -1    0    0    0    0  0.00000000000E+00  0.00000000000E+00  0.50000499739E+01  0.50000500000E+01  0.51100000000E-03 0.  1.
         11   -1    0    0    0    0 -0.00000000000E+00 -0.00000000000E+00 -0.50000499739E+01  0.50000500000E+01  0.51100000000E-03 0. -1.
         50    1    1    2    0    0  0.19531845113E-01  0.70289007488E-02 -0.83128864267E-02  0.50000500000E+01  0.50000000000E+01 0. -1.
         50    1    1    2    0    0 -0.19531845113E-01 -0.70289007488E-02  0.83128864267E-02  0.50000500000E+01  0.50000000000E+01 0. -1.
</event>
<event>
 4    1  0.5060607E-021  0.5000050E+01  0.7818608E-02  0.2136455E+00
        -11   -1    0    0    0    0  0.00000000000E+00  0.00000000000E+00  0.50000499739E+01  0.50000500000E+01  0.51100000000E-03 0. -1.
         11   -1    0    0    0    0 -0.00000000000E+00 -0.00000000000E+00 -0.50000499739E+01  0.50000500000E+01  0.51100000000E-03 0.  1.
         50    1    1    2    0    0 -0.19766349995E-01 -0.15184825507E-02  0.10343506109E-01  0.50000500000E+01  0.50000000000E+01 0. -1.
         50    1    1    2    0    0  0.19766349995E-01  0.15184825507E-02 -0.10343506109E-01  0.50000500000E+01  0.50000000000E+01 0.  1.
</event>
<event>
 4    1  0.5060607E-021  0.5000050E+01  0.7818608E-02  0.2136455E+00
        -11   -1    0    0    0    0  0.00000000000E+00  0.00000000000E+00  0.50000499739E+01  0.50000500000E+01  0.51100000000E-03 0.  1.
         11   -1    0    0    0    0 -0.00000000000E+00 -0.00000000000E+00 -0.50000499739E+01  0.50000500000E+01  0.51100000000E-03 0. -1.
         50    1    1    2    0    0  0.11330186481E-02  0.21630960659E-01 -0.55516042473E-02  0.50000500000E+01  0.50000000000E+01 0. -1.
         50    1    1    2    0    0 -0.11330186481E-02 -0.21630960659E-01  0.55516042473E-02  0.50000500000E+01  0.50000000000E+01 0.  1.
</event>
<event>
 4    1  0.5060607E-021  0.5000050E+01  0.7818608E-02  0.2136455E+00
        -11   -1    0    0    0    0  0.00000000000E+00  0.00000000000E+00  0.50000499739E+01  0.50000500000E+01  0.51100000000E-03 0.  1.
         11   -1    0    0    0    0 -0.00000000000E+00 -0.00000000000E+00 -0.50000499739E+01  0.50000500000E+01  0.51100000000E-03 0. -1.
         50    1    1    2    0    0 -0.10892488939E-01 -0.10065479864E-01 -0.16734464431E-01  0.50000500000E+01  0.50000000000E+01 0. -1.
         50    1    1    2    0    0  0.10892488939E-01  0.10065479864E-01  0.16734464431E-01  0.50000500000E+01  0.50000000000E+01 0. -1.
</event>
<event>
 4    1  0.5060607E-021  0.5000050E+01  0.7818608E-02  0.2136455E+00
        -11   -1    0    0    0    0  0.00000000000E+00  0.00000000000E+00  0.50000499739E+01  0.50000500000E+01  0.51100000000E-03 0. -1.
         11   -1    0    0    0    0 -0.00000000000E+00 -0.00000000000E+00 -0.50000499739E+01  0.50000500000E+01  0.51100000000E-03 0.  1.
         50    1    1    2    0    0  0.16209902625E-01 -0.98264750885E-02 -0.11860941962E-01  0.50000500000E+01  0.50000000000E+01 0. -1.
         50    1    1    2    0    0 -0.16209902625E-01  0.98264750885E-02  0.11860941962E-01  0.50000500000E+01  0.50000000000E+01 0. -1.
</event>
<event>
 4    1  0.5060607E-021  0.5000050E+01  0.7818608E-02  0.2136455E+00
        -11   -1    0    0    0    0  0.00000000000E+00  0.00000000000E+00  0.50000499739E+01  0.50000500000E+01  0.51100000000E-03 0. -1.
         11   -1    0    0    0    0 -0.00000000000E+00 -0.00000000000E+00 -0.50000499739E+01  0.50000500000E+01  0.51100000000E-03 0.  1.
         50    1    1    2    0    0 -0.13246807791E-01 -0.13423228982E-01 -0.12014221034E-01  0.50000500000E+01  0.50000000000E+01 0.  1.
         50    1    1    2    0    0  0.13246807791E-01  0.13423228982E-01  0.12014221034E-01  0.50000500000E+01  0.50000000000E+01 0. -1.
</event>
<event>
 4    1  0.5060607E-021  0.5000050E+01  0.7818608E-02  0.2136455E+00
        -11   -1    0    0    0    0  0.00000000000E+00  0.00000000000E+00  0.50000499739E+01  0.50000500000E+01  0.51100000000E-03 0.  1.
         11   -1    0    0    0    0 -0.00000000000E+00 -0.00000000000E+00 -0.50000499739E+01  0.50000500000E+01  0.51100000000E-03 0. -1.
         50    1    1    2    0    0  0.84537439938E-02 -0.57595218238E-02 -0.19883777831E-01  0.50000500000E+01  0.50000000000E+01 0. -1.
         50    1    1    2    0    0 -0.84537439938E-02  0.57595218238E-02  0.19883777831E-01  0.50000500000E+01  0.50000000000E+01 0.  0.
</event>
<event>
 4    1  0.5060607E-021  0.5000050E+01  0.7818608E-02  0.2136455E+00
        -11   -1    0    0    0    0  0.00000000000E+00  0.00000000000E+00  0.50000499739E+01  0.50000500000E+01  0.51100000000E-03 0.  1.
         11   -1    0    0    0    0 -0.00000000000E+00 -0.00000000000E+00 -0.50000499739E+01  0.50000500000E+01  0.51100000000E-03 0. -1.
         50    1    1    2    0    0 -0.17591515913E-01  0.13637706049E-01 -0.21340200535E-02  0.50000500000E+01  0.50000000000E+01 0.  0.
         50    1    1    2    0    0  0.17591515913E-01 -0.13637706049E-01  0.21340200535E-02  0.50000500000E+01  0.50000000000E+01 0.  1.
</event>
<event>
 4    1  0.5060607E-021  0.5000050E+01  0.7818608E-02  0.2136455E+00
        -11   -1    0    0    0    0  0.00000000000E+00  0.00000000000E+00  0.50000499739E+01  0.50000500000E+01  0.51100000000E-03 0.  1.
         11   -1    0    0    0    0 -0.00000000000E+00 -0.00000000000E+00 -0.50000499739E+01  0.50000500000E+01  0.51100000000E-03 0. -1.
         50    1    1    2    0    0  0.17522766333E-01  0.13800804043E-01 -0.15789134947E-02  0.50000500000E+01  0.50000000000E+01 0. -1.
         50    1    1    2    0    0 -0.17522766333E-01 -0.13800804043E-01  0.15789134947E-02  0.50000500000E+01  0.50000000000E+01 0.  1.
</event>
<event>
 4    1  0.5060607E-021  0.5000050E+01  0.7818608E-02  0.2136455E+00
        -11   -1    0    0    0    0  0.00000000000E+00  0.00000000000E+00  0.50000499739E+01  0.50000500000E+01  0.51100000000E-03 0. -1.
         11   -1    0    0    0    0 -0.00000000000E+00 -0.00000000000E+00 -0.50000499739E+01  0.50000500000E+01  0.51100000000E-03 0.  1.
         50    1    1    2    0    0  0.29439510870E-02  0.45503244411E-02  0.21694012987E-01  0.50000500000E+01  0.50000000000E+01 0. -1.
         50    1    1    2    0    0 -0.29439510870E-02 -0.45503244411E-02 -0.21694012987E-01  0.50000500000E+01  0.50000000000E+01 0.  0.
</event>
<event>
 4    1  0.5060607E-021  0.5000050E+01  0.7818608E-02  0.2136455E+00
        -11   -1    0    0    0    0  0.00000000000E+00  0.00000000000E+00  0.50000499739E+01  0.50000500000E+01  0.51100000000E-03 0.  1.
         11   -1    0    0    0    0 -0.00000000000E+00 -0.00000000000E+00 -0.50000499739E+01  0.50000500000E+01  0.51100000000E-03 0. -1.
         50    1    1    2    0    0  0.18429740978E-01 -0.11430025043E-01  0.54499243130E-02  0.50000500000E+01  0.50000000000E+01 0.  0.
         50    1    1    2    0    0 -0.18429740978E-01  0.11430025043E-01 -0.54499243130E-02  0.50000500000E+01  0.50000000000E+01 0.  0.
</event>
<event>
 4    1  0.5060607E-021  0.5000050E+01  0.7818608E-02  0.2136455E+00
        -11   -1    0    0    0    0  0.00000000000E+00  0.00000000000E+00  0.50000499739E+01  0.50000500000E+01  0.51100000000E-03 0. -1.
         11   -1    0    0    0    0 -0.00000000000E+00 -0.00000000000E+00 -0.50000499739E+01  0.50000500000E+01  0.51100000000E-03 0.  1.
         50    1    1    2    0    0  0.10747743633E-01  0.14961945952E-01  0.12673937041E-01  0.50000500000E+01  0.50000000000E+01 0. -1.
         50    1    1    2    0    0 -0.10747743633E-01 -0.14961945952E-01 -0.12673937041E-01  0.50000500000E+01  0.50000000000E+01 0.  1.
</event>
<event>
 4    1  0.5060607E-021  0.5000050E+01  0.7818608E-02  0.2136455E+00
        -11   -1    0    0    0    0  0.00000000000E+00  0.00000000000E+00  0.50000499739E+01  0.50000500000E+01  0.51100000000E-03 0.  1.
         11   -1    0    0    0    0 -0.00000000000E+00 -0.00000000000E+00 -0.50000499739E+01  0.50000500000E+01  0.51100000000E-03 0. -1.
         50    1    1    2    0    0  0.11355378713E-01 -0.17518284847E-01 -0.80104662983E-02  0.50000500000E+01  0.50000000000E+01 0. -1.
         50    1    1    2    0    0 -0.11355378713E-01  0.17518284847E-01  0.80104662983E-02  0.50000500000E+01  0.50000000000E+01 0.  1.
</event>
<event>
 4    1  0.5060607E-021  0.5000050E+01  0.7818608E-02  0.2136455E+00
        -11   -1    0    0    0    0  0.00000000000E+00  0.00000000000E+00  0.50000499739E+01  0.50000500000E+01  0.51100000000E-03 0. -1.
         11   -1    0    0    0    0 -0.00000000000E+00 -0.00000000000E+00 -0.50000499739E+01  0.50000500000E+01  0.51100000000E-03 0.  1.
         50    1    1    2    0    0 -0.21237835713E-01  0.69968766134E-02  0.23491742010E-04  0.50000500000E+01  0.50000000000E+01 0.  1.
         50    1    1    2    0    0  0.21237835713E-01 -0.69968766134E-02 -0.23491742011E-04  0.50000500000E+01  0.50000000000E+01 0. -1.
</event>
<event>
 4    1  0.5060607E-021  0.5000050E+01  0.7818608E-02  0.2136455E+00
        -11   -1    0    0    0    0  0.00000000000E+00  0.00000000000E+00  0.50000499739E+01  0.50000500000E+01  0.51100000000E-03 0.  1.
         11   -1    0    0    0    0 -0.00000000000E+00 -0.00000000000E+00 -0.50000499739E+01  0.50000500000E+01  0.51100000000E-03 0. -1.
         50    1    1    2    0    0  0.22919971243E-02 -0.11259242815E-01 -0.19182770926E-01  0.50000500000E+01  0.50000000000E+01 0. -1.
         50    1    1    2    0    0 -0.22919971243E-02  0.11259242815E-01  0.19182770926E-01  0.50000500000E+01  0.50000000000E+01 0.  0.
</event>
<event>
 4    1  0.5060607E-021  0.5000050E+01  0.7818608E-02  0.2136455E+00
        -11   -1    0    0    0    0  0.00000000000E+00  0.00000000000E+00  0.50000499739E+01  0.50000500000E+01  0.51100000000E-03 0. -1.
         11   -1    0    0    0    0 -0.00000000000E+00 -0.00000000000E+00 -0.50000499739E+01  0.50000500000E+01  0.51100000000E-03 0.  1.
         50    1    1    2    0    0 -0.11721717910E-01 -0.13198913925E-01 -0.13725614756E-01  0.50000500000E+01  0.50000000000E+01 0.  1.
         50    1    1    2    0    0  0.11721717910E-01  0.13198913925E-01  0.13725614756E-01  0.50000500000E+01  0.50000000000E+01 0. -1.
</event>
<event>
 4    1  0.5060607E-021  0.5000050E+01  0.7818608E-02  0.2136455E+00
        -11   -1    0    0    0    0  0.00000000000E+00  0.00000000000E+00  0.50000499739E+01  0.50000500000E+01  0.51100000000E-03 0.  1.
         11   -1    0    0    0    0 -0.00000000000E+00 -0.00000000000E+00 -0.50000499739E+01  0.50000500000E+01  0.51100000000E-03 0. -1.
         50    1    1    2    0    0 -0.20264417598E-01  0.57827440753E-02 -0.74776834895E-02  0.50000500000E+01  0.50000000000E+01 0.  1.
         50    1    1    2    0    0  0.20264417598E-01 -0.57827440753E-02  0.74776834895E-02  0.50000500000E+01  0.50000000000E+01 0.  0.
</event>
<event>
 4    1  0.5060607E-021  0.5000050E+01  0.7818608E-02  0.2136455E+00
        -11   -1    0    0    0    0  0.00000000000E+00  0.00000000000E+00  0.50000499739E+01  0.50000500000E+01  0.51100000000E-03 0. -1.
         11   -1    0    0    0    0 -0.00000000000E+00 -0.00000000000E+00 -0.50000499739E+01  0.50000500000E+01  0.51100000000E-03 0.  1.
         50    1    1    2    0    0 -0.12703336044E-01 -0.77416925472E-02 -0.16694129203E-01  0.50000500000E+01  0.50000000000E+01 0.  0.
         50    1    1    2    0    0  0.12703336044E-01  0.77416925472E-02  0.16694129203E-01  0.50000500000E+01  0.50000000000E+01 0.  1.
</event>
<event>
 4    1  0.5060607E-021  0.5000050E+01  0.7818608E-02  0.2136455E+00
        -11   -1    0    0    0    0  0.00000000000E+00  0.00000000000E+00  0.50000499739E+01  0.50000500000E+01  0.51100000000E-03 0. -1.
         11   -1    0    0    0    0 -0.00000000000E+00 -0.00000000000E+00 -0.50000499739E+01  0.50000500000E+01  0.51100000000E-03 0.  1.
         50    1    1    2    0    0 -0.17654425786E-01 -0.13354950245E-01 -0.31573808950E-02  0.50000500000E+01  0.50000000000E+01 0. -1.
         50    1    1    2    0    0  0.17654425786E-01  0.13354950245E-01  0.31573808950E-02  0.50000500000E+01  0.50000000000E+01 0.  0.
</event>
<event>
 4    1  0.5060607E-021  0.5000050E+01  0.7818608E-02  0.2136455E+00
        -11   -1    0    0    0    0  0.00000000000E+00  0.00000000000E+00  0.50000499739E+01  0.50000500000E+01  0.51100000000E-03 0. -1.
         11   -1    0    0    0    0 -0.00000000000E+00 -0.00000000000E+00 -0.50000499739E+01  0.50000500000E+01  0.51100000000E-03 0.  1.
         50    1    1    2    0    0 -0.16110282426E-01 -0.96153960325E-02  0.12165749434E-01  0.50000500000E+01  0.50000000000E+01 0.  0.
         50    1    1    2    0    0  0.16110282426E-01  0.96153960325E-02 -0.12165749434E-01  0.50000500000E+01  0.50000000000E+01 0.  0.
</event>
<event>
 4    1  0.5060607E-021  0.5000050E+01  0.7818608E-02  0.2136455E+00
        -11   -1    0    0    0    0  0.00000000000E+00  0.00000000000E+00  0.50000499739E+01  0.50000500000E+01  0.51100000000E-03 0.  1.
         11   -1    0    0    0    0 -0.00000000000E+00 -0.00000000000E+00 -0.50000499739E+01  0.50000500000E+01  0.51100000000E-03 0. -1.
         50    1    1    2    0    0 -0.10277209042E-01 -0.91646015490E-02 -0.17617932704E-01  0.50000500000E+01  0.50000000000E+01 0. -1.
         50    1    1    2    0    0  0.10277209042E-01  0.91646015490E-02  0.17617932704E-01  0.50000500000E+01  0.50000000000E+01 0.  1.
</event>
<event>
 4    1  0.5060607E-021  0.5000050E+01  0.7818608E-02  0.2136455E+00
        -11   -1    0    0    0    0  0.00000000000E+00  0.00000000000E+00  0.50000499739E+01  0.50000500000E+01  0.51100000000E-03 0.  1.
         11   -1    0    0    0    0 -0.00000000000E+00 -0.00000000000E+00 -0.50000499739E+01  0.50000500000E+01  0.51100000000E-03 0. -1.
         50    1    1    2    0    0  0.10424254796E-01 -0.17471930579E-01  0.92773408792E-02  0.50000500000E+01  0.50000000000E+01 0.  0.
         50    1    1    2    0    0 -0.10424254796E-01  0.17471930579E-01 -0.92773408792E-02  0.50000500000E+01  0.50000000000E+01 0.  1.
</event>
<event>
 4    1  0.5060607E-021  0.5000050E+01  0.7818608E-02  0.2136455E+00
        -11   -1    0    0    0    0  0.00000000000E+00  0.00000000000E+00  0.50000499739E+01  0.50000500000E+01  0.51100000000E-03 0.  1.
         11   -1    0    0    0    0 -0.00000000000E+00 -0.00000000000E+00 -0.50000499739E+01  0.50000500000E+01  0.51100000000E-03 0. -1.
         50    1    1    2    0    0 -0.14072150080E-01  0.16444730267E-01  0.56167551656E-02  0.50000500000E+01  0.50000000000E+01 0. -1.
         50    1    1    2    0    0  0.14072150080E-01 -0.16444730267E-01 -0.56167551656E-02  0.50000500000E+01  0.50000000000E+01 0.  0.
</event>
<event>
 4    1  0.5060607E-021  0.5000050E+01  0.7818608E-02  0.2136455E+00
        -11   -1    0    0    0    0  0.00000000000E+00  0.00000000000E+00  0.50000499739E+01  0.50000500000E+01  0.51100000000E-03 0. -1.
         11   -1    0    0    0    0 -0.00000000000E+00 -0.00000000000E+00 -0.50000499739E+01  0.50000500000E+01  0.51100000000E-03 0.  1.
         50    1    1    2    0    0 -0.13544989300E-01 -0.13039475637E-01  0.12104042299E-01  0.50000500000E+01  0.50000000000E+01 0.  1.
         50    1    1    2    0    0  0.13544989300E-01  0.13039475637E-01 -0.12104042299E-01  0.50000500000E+01  0.50000000000E+01 0.  1.
</event>
<event>
 4    1  0.5060607E-021  0.5000050E+01  0.7818608E-02  0.2136455E+00
        -11   -1    0    0    0    0  0.00000000000E+00  0.00000000000E+00  0.50000499739E+01  0.50000500000E+01  0.51100000000E-03 0. -1.
         11   -1    0    0    0    0 -0.00000000000E+00 -0.00000000000E+00 -0.50000499739E+01  0.50000500000E+01  0.51100000000E-03 0.  1.
         50    1    1    2    0    0  0.45448002743E-02 -0.30807880634E-02  0.21676162838E-01  0.50000500000E+01  0.50000000000E+01 0.  0.
         50    1    1    2    0    0 -0.45448002743E-02  0.30807880634E-02 -0.21676162838E-01  0.50000500000E+01  0.50000000000E+01 0.  1.
</event>
<event>
 4    1  0.5060607E-021  0.5000050E+01  0.7818608E-02  0.2136455E+00
        -11   -1    0    0    0    0  0.00000000000E+00  0.00000000000E+00  0.50000499739E+01  0.50000500000E+01  0.51100000000E-03 0. -1.
         11   -1    0    0    0    0 -0.00000000000E+00 -0.00000000000E+00 -0.50000499739E+01  0.50000500000E+01  0.51100000000E-03 0.  1.
         50    1    1    2    0    0 -0.20994983336E-01 -0.19241173342E-02  0.74505669058E-02  0.50000500000E+01  0.50000000000E+01 0. -1.
         50    1    1    2    0    0  0.20994983336E-01  0.19241173342E-02 -0.74505669058E-02  0.50000500000E+01  0.50000000000E+01 0.  1.
</event>
<event>
 4    1  0.5060607E-021  0.5000050E+01  0.7818608E-02  0.2136455E+00
        -11   -1    0    0    0    0  0.00000000000E+00  0.00000000000E+00  0.50000499739E+01  0.50000500000E+01  0.51100000000E-03 0.  1.
         11   -1    0    0    0    0 -0.00000000000E+00 -0.00000000000E+00 -0.50000499739E+01  0.50000500000E+01  0.51100000000E-03 0. -1.
         50    1    1    2    0    0 -0.38147922300E-02  0.12388309340E-01 -0.18220308778E-01  0.50000500000E+01  0.50000000000E+01 0. -1.
         50    1    1    2    0    0  0.38147922300E-02 -0.12388309340E-01  0.18220308778E-01  0.50000500000E+01  0.50000000000E+01 0.  1.
</event>
<event>
 4    1  0.5060607E-021  0.5000050E+01  0.7818608E-02  0.2136455E+00
        -11   -1    0    0    0    0  0.00000000000E+00  0.00000000000E+00  0.50000499739E+01  0.50000500000E+01  0.51100000000E-03 0.  1.
         11   -1    0    0    0    0 -0.00000000000E+00 -0.00000000000E+00 -0.50000499739E+01  0.50000500000E+01  0.51100000000E-03 0. -1.
         50    1    1    2    0    0  0.12068986508E-01 -0.67230941239E-02  0.17582436409E-01  0.50000500000E+01  0.50000000000E+01 0.  1.
         50    1    1    2    0    0 -0.12068986508E-01  0.67230941239E-02 -0.17582436409E-01  0.50000500000E+01  0.50000000000E+01 0.  1.
</event>
<event>
 4    1  0.5060607E-021  0.5000050E+01  0.7818608E-02  0.2136455E+00
        -11   -1    0    0    0    0  0.00000000000E+00  0.00000000000E+00  0.50000499739E+01  0.50000500000E+01  0.51100000000E-03 0. -1.
         11   -1    0    0    0    0 -0.00000000000E+00 -0.00000000000E+00 -0.50000499739E+01  0.50000500000E+01  0.51100000000E-03 0.  1.
         50    1    1    2    0    0  0.22255718823E-01  0.19452716654E-02 -0.94941973630E-03  0.50000500000E+01  0.50000000000E+01 0.  1.
         50    1    1    2    0    0 -0.22255718823E-01 -0.19452716654E-02  0.94941973630E-03  0.50000500000E+01  0.50000000000E+01 0.  0.
</event>
<event>
 4    1  0.5060607E-021  0.5000050E+01  0.7818608E-02  0.2136455E+00
        -11   -1    0    0    0    0  0.00000000000E+00  0.00000000000E+00  0.50000499739E+01  0.50000500000E+01  0.51100000000E-03 0. -1.
         11   -1    0    0    0    0 -0.00000000000E+00 -0.00000000000E+00 -0.50000499739E+01  0.50000500000E+01  0.51100000000E-03 0.  1.
         50    1    1    2    0    0 -0.13722932296E-01 -0.11981809589E-01 -0.12966104588E-01  0.50000500000E+01  0.50000000000E+01 0.  0.
         50    1    1    2    0    0  0.13722932296E-01  0.11981809589E-01  0.12966104588E-01  0.50000500000E+01  0.50000000000E+01 0.  0.
</event>
<event>
 4    1  0.5060607E-021  0.5000050E+01  0.7818608E-02  0.2136455E+00
        -11   -1    0    0    0    0  0.00000000000E+00  0.00000000000E+00  0.50000499739E+01  0.50000500000E+01  0.51100000000E-03 0.  1.
         11   -1    0    0    0    0 -0.00000000000E+00 -0.00000000000E+00 -0.50000499739E+01  0.50000500000E+01  0.51100000000E-03 0. -1.
         50    1    1    2    0    0 -0.77274328184E-02  0.10431525577E-01 -0.18206387785E-01  0.50000500000E+01  0.50000000000E+01 0.  0.
         50    1    1    2    0    0  0.77274328184E-02 -0.10431525577E-01  0.18206387785E-01  0.50000500000E+01  0.50000000000E+01 0.  0.
</event>
<event>
 4    1  0.5060607E-021  0.5000050E+01  0.7818608E-02  0.2136455E+00
        -11   -1    0    0    0    0  0.00000000000E+00  0.00000000000E+00  0.50000499739E+01  0.50000500000E+01  0.51100000000E-03 0.  1.
         11   -1    0    0    0    0 -0.00000000000E+00 -0.00000000000E+00 -0.50000499739E+01  0.50000500000E+01  0.51100000000E-03 0. -1.
         50    1    1    2    0    0 -0.87458531780E-02  0.20495725822E-01 -0.18541238402E-02  0.50000500000E+01  0.50000000000E+01 0. -1.
         50    1    1    2    0    0  0.87458531780E-02 -0.20495725822E-01  0.18541238402E-02  0.50000500000E+01  0.50000000000E+01 0.  1.
</event>
<event>
 4    1  0.5060607E-021  0.5000050E+01  0.7818608E-02  0.2136455E+00
        -11   -1    0    0    0    0  0.00000000000E+00  0.00000000000E+00  0.50000499739E+01  0.50000500000E+01  0.51100000000E-03 0. -1.
         11   -1    0    0    0    0 -0.00000000000E+00 -0.00000000000E+00 -0.50000499739E+01  0.50000500000E+01  0.51100000000E-03 0.  1.
         50    1    1    2    0    0 -0.11242056597E-01  0.63787688763E-02 -0.18246368709E-01  0.50000500000E+01  0.50000000000E+01 0.  0.
         50    1    1    2    0    0  0.11242056597E-01 -0.63787688763E-02  0.18246368709E-01  0.50000500000E+01  0.50000000000E+01 0.  0.
</event>
<event>
 4    1  0.5060607E-021  0.5000050E+01  0.7818608E-02  0.2136455E+00
        -11   -1    0    0    0    0  0.00000000000E+00  0.00000000000E+00  0.50000499739E+01  0.50000500000E+01  0.51100000000E-03 0. -1.
         11   -1    0    0    0    0 -0.00000000000E+00 -0.00000000000E+00 -0.50000499739E+01  0.50000500000E+01  0.51100000000E-03 0.  1.
         50    1    1    2    0    0 -0.91243671505E-02  0.17325898453E-01 -0.10796372859E-01  0.50000500000E+01  0.50000000000E+01 0.  1.
         50    1    1    2    0    0  0.91243671505E-02 -0.17325898453E-01  0.10796372859E-01  0.50000500000E+01  0.50000000000E+01 0. -1.
</event>
<event>
 4    1  0.5060607E-021  0.5000050E+01  0.7818608E-02  0.2136455E+00
        -11   -1    0    0    0    0  0.00000000000E+00  0.00000000000E+00  0.50000499739E+01  0.50000500000E+01  0.51100000000E-03 0.  1.
         11   -1    0    0    0    0 -0.00000000000E+00 -0.00000000000E+00 -0.50000499739E+01  0.50000500000E+01  0.51100000000E-03 0. -1.
         50    1    1    2    0    0  0.19993096779E-01 -0.92987734416E-02  0.37163683452E-02  0.50000500000E+01  0.50000000000E+01 0.  1.
         50    1    1    2    0    0 -0.19993096779E-01  0.92987734416E-02 -0.37163683452E-02  0.50000500000E+01  0.50000000000E+01 0. -1.
</event>
<event>
 4    1  0.5060607E-021  0.5000050E+01  0.7818608E-02  0.2136455E+00
        -11   -1    0    0    0    0  0.00000000000E+00  0.00000000000E+00  0.50000499739E+01  0.50000500000E+01  0.51100000000E-03 0. -1.
         11   -1    0    0    0    0 -0.00000000000E+00 -0.00000000000E+00 -0.50000499739E+01  0.50000500000E+01  0.51100000000E-03 0.  1.
         50    1    1    2    0    0 -0.13474621416E-01 -0.42876760722E-02  0.17322035434E-01  0.50000500000E+01  0.50000000000E+01 0. -1.
         50    1    1    2    0    0  0.13474621416E-01  0.42876760722E-02 -0.17322035434E-01  0.50000500000E+01  0.50000000000E+01 0.  1.
</event>
<event>
 4    1  0.5060607E-021  0.5000050E+01  0.7818608E-02  0.2136455E+00
        -11   -1    0    0    0    0  0.00000000000E+00  0.00000000000E+00  0.50000499739E+01  0.50000500000E+01  0.51100000000E-03 0.  1.
         11   -1    0    0    0    0 -0.00000000000E+00 -0.00000000000E+00 -0.50000499739E+01  0.50000500000E+01  0.51100000000E-03 0. -1.
         50    1    1    2    0    0 -0.12744211927E-01  0.11894008182E-01 -0.14004289762E-01  0.50000500000E+01  0.50000000000E+01 0. -1.
         50    1    1    2    0    0  0.12744211927E-01 -0.11894008182E-01  0.14004289762E-01  0.50000500000E+01  0.50000000000E+01 0.  1.
</event>
<event>
 4    1  0.5060607E-021  0.5000050E+01  0.7818608E-02  0.2136455E+00
        -11   -1    0    0    0    0  0.00000000000E+00  0.00000000000E+00  0.50000499739E+01  0.50000500000E+01  0.51100000000E-03 0.  1.
         11   -1    0    0    0    0 -0.00000000000E+00 -0.00000000000E+00 -0.50000499739E+01  0.50000500000E+01  0.51100000000E-03 0. -1.
         50    1    1    2    0    0  0.12571975386E-01 -0.17740975068E-01  0.52159120516E-02  0.50000500000E+01  0.50000000000E+01 0.  0.
         50    1    1    2    0    0 -0.12571975386E-01  0.17740975068E-01 -0.52159120516E-02  0.50000500000E+01  0.50000000000E+01 0.  1.
</event>
<event>
 4    1  0.5060607E-021  0.5000050E+01  0.7818608E-02  0.2136455E+00
        -11   -1    0    0    0    0  0.00000000000E+00  0.00000000000E+00  0.50000499739E+01  0.50000500000E+01  0.51100000000E-03 0.  1.
         11   -1    0    0    0    0 -0.00000000000E+00 -0.00000000000E+00 -0.50000499739E+01  0.50000500000E+01  0.51100000000E-03 0. -1.
         50    1    1    2    0    0 -0.83385152960E-02 -0.17972180726E-01 -0.10366888763E-01  0.50000500000E+01  0.50000000000E+01 0.  0.
         50    1    1    2    0    0  0.83385152960E-02  0.17972180726E-01  0.10366888763E-01  0.50000500000E+01  0.50000000000E+01 0. -1.
</event>
<event>
 4    1  0.5060607E-021  0.5000050E+01  0.7818608E-02  0.2136455E+00
        -11   -1    0    0    0    0  0.00000000000E+00  0.00000000000E+00  0.50000499739E+01  0.50000500000E+01  0.51100000000E-03 0.  1.
         11   -1    0    0    0    0 -0.00000000000E+00 -0.00000000000E+00 -0.50000499739E+01  0.50000500000E+01  0.51100000000E-03 0. -1.
         50    1    1    2    0    0 -0.31206036911E-02  0.16057067678E-01  0.15245816153E-01  0.50000500000E+01  0.50000000000E+01 0.  0.
         50    1    1    2    0    0  0.31206036911E-02 -0.16057067678E-01 -0.15245816153E-01  0.50000500000E+01  0.50000000000E+01 0.  0.
</event>
<event>
 4    1  0.5060607E-021  0.5000050E+01  0.7818608E-02  0.2136455E+00
        -11   -1    0    0    0    0  0.00000000000E+00  0.00000000000E+00  0.50000499739E+01  0.50000500000E+01  0.51100000000E-03 0.  1.
         11   -1    0    0    0    0 -0.00000000000E+00 -0.00000000000E+00 -0.50000499739E+01  0.50000500000E+01  0.51100000000E-03 0. -1.
         50    1    1    2    0    0 -0.18724685609E-01  0.75120770844E-02  0.96414390378E-02  0.50000500000E+01  0.50000000000E+01 0.  0.
         50    1    1    2    0    0  0.18724685609E-01 -0.75120770844E-02 -0.96414390378E-02  0.50000500000E+01  0.50000000000E+01 0.  1.
</event>
<event>
 4    1  0.5060607E-021  0.5000050E+01  0.7818608E-02  0.2136455E+00
        -11   -1    0    0    0    0  0.00000000000E+00  0.00000000000E+00  0.50000499739E+01  0.50000500000E+01  0.51100000000E-03 0. -1.
         11   -1    0    0    0    0 -0.00000000000E+00 -0.00000000000E+00 -0.50000499739E+01  0.50000500000E+01  0.51100000000E-03 0.  1.
         50    1    1    2    0    0 -0.10974283668E-01 -0.19027313168E-01 -0.41867590764E-02  0.50000500000E+01  0.50000000000E+01 0.  1.
         50    1    1    2    0    0  0.10974283668E-01  0.19027313168E-01  0.41867590764E-02  0.50000500000E+01  0.50000000000E+01 0.  0.
</event>
<event>
 4    1  0.5060607E-021  0.5000050E+01  0.7818608E-02  0.2136455E+00
        -11   -1    0    0    0    0  0.00000000000E+00  0.00000000000E+00  0.50000499739E+01  0.50000500000E+01  0.51100000000E-03 0.  1.
         11   -1    0    0    0    0 -0.00000000000E+00 -0.00000000000E+00 -0.50000499739E+01  0.50000500000E+01  0.51100000000E-03 0. -1.
         50    1    1    2    0    0  0.12174019583E-01  0.18587460407E-01  0.25103909671E-02  0.50000500000E+01  0.50000000000E+01 0.  0.
         50    1    1    2    0    0 -0.12174019583E-01 -0.18587460407E-01 -0.25103909671E-02  0.50000500000E+01  0.50000000000E+01 0. -1.
</event>
<event>
 4    1  0.5060607E-021  0.5000050E+01  0.7818608E-02  0.2136455E+00
        -11   -1    0    0    0    0  0.00000000000E+00  0.00000000000E+00  0.50000499739E+01  0.50000500000E+01  0.51100000000E-03 0.  1.
         11   -1    0    0    0    0 -0.00000000000E+00 -0.00000000000E+00 -0.50000499739E+01  0.50000500000E+01  0.51100000000E-03 0. -1.
         50    1    1    2    0    0  0.13336688130E-01  0.16853563822E-01  0.61719232192E-02  0.50000500000E+01  0.50000000000E+01 0. -1.
         50    1    1    2    0    0 -0.13336688130E-01 -0.16853563822E-01 -0.61719232192E-02  0.50000500000E+01  0.50000000000E+01 0.  0.
</event>
<event>
 4    1  0.5060607E-021  0.5000050E+01  0.7818608E-02  0.2136455E+00
        -11   -1    0    0    0    0  0.00000000000E+00  0.00000000000E+00  0.50000499739E+01  0.50000500000E+01  0.51100000000E-03 0.  1.
         11   -1    0    0    0    0 -0.00000000000E+00 -0.00000000000E+00 -0.50000499739E+01  0.50000500000E+01  0.51100000000E-03 0. -1.
         50    1    1    2    0    0 -0.64747065864E-02  0.19000222544E-01  0.98525234270E-02  0.50000500000E+01  0.50000000000E+01 0.  1.
         50    1    1    2    0    0  0.64747065864E-02 -0.19000222544E-01 -0.98525234270E-02  0.50000500000E+01  0.50000000000E+01 0. -1.
</event>
<event>
 4    1  0.5060607E-021  0.5000050E+01  0.7818608E-02  0.2136455E+00
        -11   -1    0    0    0    0  0.00000000000E+00  0.00000000000E+00  0.50000499739E+01  0.50000500000E+01  0.51100000000E-03 0.  1.
         11   -1    0    0    0    0 -0.00000000000E+00 -0.00000000000E+00 -0.50000499739E+01  0.50000500000E+01  0.51100000000E-03 0. -1.
         50    1    1    2    0    0  0.16322767408E-01 -0.35551224215E-02 -0.14863743428E-01  0.50000500000E+01  0.50000000000E+01 0.  0.
         50    1    1    2    0    0 -0.16322767408E-01  0.35551224215E-02  0.14863743428E-01  0.50000500000E+01  0.50000000000E+01 0.  1.
</event>
<event>
 4    1  0.5060607E-021  0.5000050E+01  0.7818608E-02  0.2136455E+00
        -11   -1    0    0    0    0  0.00000000000E+00  0.00000000000E+00  0.50000499739E+01  0.50000500000E+01  0.51100000000E-03 0. -1.
         11   -1    0    0    0    0 -0.00000000000E+00 -0.00000000000E+00 -0.50000499739E+01  0.50000500000E+01  0.51100000000E-03 0.  1.
         50    1    1    2    0    0  0.83025307511E-02 -0.47879270140E-02 -0.20202629483E-01  0.50000500000E+01  0.50000000000E+01 0.  0.
         50    1    1    2    0    0 -0.83025307511E-02  0.47879270140E-02  0.20202629483E-01  0.50000500000E+01  0.50000000000E+01 0. -1.
</event>
<event>
 4    1  0.5060607E-021  0.5000050E+01  0.7818608E-02  0.2136455E+00
        -11   -1    0    0    0    0  0.00000000000E+00  0.00000000000E+00  0.50000499739E+01  0.50000500000E+01  0.51100000000E-03 0. -1.
         11   -1    0    0    0    0 -0.00000000000E+00 -0.00000000000E+00 -0.50000499739E+01  0.50000500000E+01  0.51100000000E-03 0.  1.
         50    1    1    2    0    0 -0.13117911968E-01  0.88439717555E-02  0.15802121667E-01  0.50000500000E+01  0.50000000000E+01 0.  0.
         50    1    1    2    0    0  0.13117911968E-01 -0.88439717555E-02 -0.15802121667E-01  0.50000500000E+01  0.50000000000E+01 0.  0.
</event>
<event>
 4    1  0.5060607E-021  0.5000050E+01  0.7818608E-02  0.2136455E+00
        -11   -1    0    0    0    0  0.00000000000E+00  0.00000000000E+00  0.50000499739E+01  0.50000500000E+01  0.51100000000E-03 0.  1.
         11   -1    0    0    0    0 -0.00000000000E+00 -0.00000000000E+00 -0.50000499739E+01  0.50000500000E+01  0.51100000000E-03 0. -1.
         50    1    1    2    0    0 -0.12681553908E-02  0.20553201000E-01  0.87155155082E-02  0.50000500000E+01  0.50000000000E+01 0. -1.
         50    1    1    2    0    0  0.12681553908E-02 -0.20553201000E-01 -0.87155155082E-02  0.50000500000E+01  0.50000000000E+01 0.  0.
</event>
<event>
 4    1  0.5060607E-021  0.5000050E+01  0.7818608E-02  0.2136455E+00
        -11   -1    0    0    0    0  0.00000000000E+00  0.00000000000E+00  0.50000499739E+01  0.50000500000E+01  0.51100000000E-03 0. -1.
         11   -1    0    0    0    0 -0.00000000000E+00 -0.00000000000E+00 -0.50000499739E+01  0.50000500000E+01  0.51100000000E-03 0.  1.
         50    1    1    2    0    0 -0.22221499397E-01 -0.98635114112E-04  0.24895251879E-02  0.50000500000E+01  0.50000000000E+01 0.  0.
         50    1    1    2    0    0  0.22221499397E-01  0.98635114112E-04 -0.24895251879E-02  0.50000500000E+01  0.50000000000E+01 0.  1.
</event>
<event>
 4    1  0.5060607E-021  0.5000050E+01  0.7818608E-02  0.2136455E+00
        -11   -1    0    0    0    0  0.00000000000E+00  0.00000000000E+00  0.50000499739E+01  0.50000500000E+01  0.51100000000E-03 0. -1.
         11   -1    0    0    0    0 -0.00000000000E+00 -0.00000000000E+00 -0.50000499739E+01  0.50000500000E+01  0.51100000000E-03 0.  1.
         50    1    1    2    0    0 -0.18290928670E-01  0.10121089771E-01 -0.79377559946E-02  0.50000500000E+01  0.50000000000E+01 0. -1.
         50    1    1    2    0    0  0.18290928670E-01 -0.10121089771E-01  0.79377559946E-02  0.50000500000E+01  0.50000000000E+01 0.  1.
</event>
<event>
 4    1  0.5060607E-021  0.5000050E+01  0.7818608E-02  0.2136455E+00
        -11   -1    0    0    0    0  0.00000000000E+00  0.00000000000E+00  0.50000499739E+01  0.50000500000E+01  0.51100000000E-03 0. -1.
         11   -1    0    0    0    0 -0.00000000000E+00 -0.00000000000E+00 -0.50000499739E+01  0.50000500000E+01  0.51100000000E-03 0.  1.
         50    1    1    2    0    0 -0.10351727757E-01 -0.16027762752E-01 -0.11659976569E-01  0.50000500000E+01  0.50000000000E+01 0. -1.
         50    1    1    2    0    0  0.10351727757E-01  0.16027762752E-01  0.11659976569E-01  0.50000500000E+01  0.50000000000E+01 0.  1.
</event>
<event>
 4    1  0.5060607E-021  0.5000050E+01  0.7818608E-02  0.2136455E+00
        -11   -1    0    0    0    0  0.00000000000E+00  0.00000000000E+00  0.50000499739E+01  0.50000500000E+01  0.51100000000E-03 0.  1.
         11   -1    0    0    0    0 -0.00000000000E+00 -0.00000000000E+00 -0.50000499739E+01  0.50000500000E+01  0.51100000000E-03 0. -1.
         50    1    1    2    0    0  0.37779588148E-02  0.20372150233E-01  0.84086278356E-02  0.50000500000E+01  0.50000000000E+01 0.  1.
         50    1    1    2    0    0 -0.37779588148E-02 -0.20372150233E-01 -0.84086278356E-02  0.50000500000E+01  0.50000000000E+01 0. -1.
</event>
<event>
 4    1  0.5060607E-021  0.5000050E+01  0.7818608E-02  0.2136455E+00
        -11   -1    0    0    0    0  0.00000000000E+00  0.00000000000E+00  0.50000499739E+01  0.50000500000E+01  0.51100000000E-03 0.  1.
         11   -1    0    0    0    0 -0.00000000000E+00 -0.00000000000E+00 -0.50000499739E+01  0.50000500000E+01  0.51100000000E-03 0. -1.
         50    1    1    2    0    0  0.14259887369E-01 -0.16462233259E-02  0.17144913560E-01  0.50000500000E+01  0.50000000000E+01 0.  1.
         50    1    1    2    0    0 -0.14259887369E-01  0.16462233259E-02 -0.17144913560E-01  0.50000500000E+01  0.50000000000E+01 0.  1.
</event>
<event>
 4    1  0.5060607E-021  0.5000050E+01  0.7818608E-02  0.2136455E+00
        -11   -1    0    0    0    0  0.00000000000E+00  0.00000000000E+00  0.50000499739E+01  0.50000500000E+01  0.51100000000E-03 0.  1.
         11   -1    0    0    0    0 -0.00000000000E+00 -0.00000000000E+00 -0.50000499739E+01  0.50000500000E+01  0.51100000000E-03 0. -1.
         50    1    1    2    0    0  0.30398606871E-02 -0.21829022948E-01 -0.37756461892E-02  0.50000500000E+01  0.50000000000E+01 0.  1.
         50    1    1    2    0    0 -0.30398606871E-02  0.21829022948E-01  0.37756461892E-02  0.50000500000E+01  0.50000000000E+01 0.  0.
</event>
<event>
 4    1  0.5060607E-021  0.5000050E+01  0.7818608E-02  0.2136455E+00
        -11   -1    0    0    0    0  0.00000000000E+00  0.00000000000E+00  0.50000499739E+01  0.50000500000E+01  0.51100000000E-03 0.  1.
         11   -1    0    0    0    0 -0.00000000000E+00 -0.00000000000E+00 -0.50000499739E+01  0.50000500000E+01  0.51100000000E-03 0. -1.
         50    1    1    2    0    0  0.17071158717E-01 -0.11562590345E-01  0.86535856492E-02  0.50000500000E+01  0.50000000000E+01 0.  0.
         50    1    1    2    0    0 -0.17071158717E-01  0.11562590345E-01 -0.86535856492E-02  0.50000500000E+01  0.50000000000E+01 0.  0.
</event>
<event>
 4    1  0.5060607E-021  0.5000050E+01  0.7818608E-02  0.2136455E+00
        -11   -1    0    0    0    0  0.00000000000E+00  0.00000000000E+00  0.50000499739E+01  0.50000500000E+01  0.51100000000E-03 0. -1.
         11   -1    0    0    0    0 -0.00000000000E+00 -0.00000000000E+00 -0.50000499739E+01  0.50000500000E+01  0.51100000000E-03 0.  1.
         50    1    1    2    0    0 -0.35303366478E-02  0.21031373429E-01 -0.67246230262E-02  0.50000500000E+01  0.50000000000E+01 0.  1.
         50    1    1    2    0    0  0.35303366478E-02 -0.21031373429E-01  0.67246230262E-02  0.50000500000E+01  0.50000000000E+01 0.  1.
</event>
<event>
 4    1  0.5060607E-021  0.5000050E+01  0.7818608E-02  0.2136455E+00
        -11   -1    0    0    0    0  0.00000000000E+00  0.00000000000E+00  0.50000499739E+01  0.50000500000E+01  0.51100000000E-03 0.  1.
         11   -1    0    0    0    0 -0.00000000000E+00 -0.00000000000E+00 -0.50000499739E+01  0.50000500000E+01  0.51100000000E-03 0. -1.
         50    1    1    2    0    0 -0.46014599551E-02  0.21747966655E-01  0.24197133399E-02  0.50000500000E+01  0.50000000000E+01 0. -1.
         50    1    1    2    0    0  0.46014599551E-02 -0.21747966655E-01 -0.24197133399E-02  0.50000500000E+01  0.50000000000E+01 0.  1.
</event>
<event>
 4    1  0.5060607E-021  0.5000050E+01  0.7818608E-02  0.2136455E+00
        -11   -1    0    0    0    0  0.00000000000E+00  0.00000000000E+00  0.50000499739E+01  0.50000500000E+01  0.51100000000E-03 0. -1.
         11   -1    0    0    0    0 -0.00000000000E+00 -0.00000000000E+00 -0.50000499739E+01  0.50000500000E+01  0.51100000000E-03 0.  1.
         50    1    1    2    0    0 -0.13964353101E-01 -0.14785894422E-01  0.92939049166E-02  0.50000500000E+01  0.50000000000E+01 0.  0.
         50    1    1    2    0    0  0.13964353101E-01  0.14785894422E-01 -0.92939049166E-02  0.50000500000E+01  0.50000000000E+01 0.  1.
</event>
<event>
 4    1  0.5060607E-021  0.5000050E+01  0.7818608E-02  0.2136455E+00
        -11   -1    0    0    0    0  0.00000000000E+00  0.00000000000E+00  0.50000499739E+01  0.50000500000E+01  0.51100000000E-03 0. -1.
         11   -1    0    0    0    0 -0.00000000000E+00 -0.00000000000E+00 -0.50000499739E+01  0.50000500000E+01  0.51100000000E-03 0.  1.
         50    1    1    2    0    0 -0.18986847623E-01 -0.10891785477E-01  0.45684927982E-02  0.50000500000E+01  0.50000000000E+01 0. -1.
         50    1    1    2    0    0  0.18986847623E-01  0.10891785477E-01 -0.45684927982E-02  0.50000500000E+01  0.50000000000E+01 0.  0.
</event>
<event>
 4    1  0.5060607E-021  0.5000050E+01  0.7818608E-02  0.2136455E+00
        -11   -1    0    0    0    0  0.00000000000E+00  0.00000000000E+00  0.50000499739E+01  0.50000500000E+01  0.51100000000E-03 0.  1.
         11   -1    0    0    0    0 -0.00000000000E+00 -0.00000000000E+00 -0.50000499739E+01  0.50000500000E+01  0.51100000000E-03 0. -1.
         50    1    1    2    0    0 -0.17383924673E-01 -0.13705557563E-01  0.31558445568E-02  0.50000500000E+01  0.50000000000E+01 0. -1.
         50    1    1    2    0    0  0.17383924673E-01  0.13705557563E-01 -0.31558445568E-02  0.50000500000E+01  0.50000000000E+01 0.  1.
</event>
<event>
 4    1  0.5060607E-021  0.5000050E+01  0.7818608E-02  0.2136455E+00
        -11   -1    0    0    0    0  0.00000000000E+00  0.00000000000E+00  0.50000499739E+01  0.50000500000E+01  0.51100000000E-03 0.  1.
         11   -1    0    0    0    0 -0.00000000000E+00 -0.00000000000E+00 -0.50000499739E+01  0.50000500000E+01  0.51100000000E-03 0. -1.
         50    1    1    2    0    0 -0.15550934681E-01 -0.15436849227E-01 -0.44580956126E-02  0.50000500000E+01  0.50000000000E+01 0.  0.
         50    1    1    2    0    0  0.15550934681E-01  0.15436849227E-01  0.44580956126E-02  0.50000500000E+01  0.50000000000E+01 0. -1.
</event>
<event>
 4    1  0.5060607E-021  0.5000050E+01  0.7818608E-02  0.2136455E+00
        -11   -1    0    0    0    0  0.00000000000E+00  0.00000000000E+00  0.50000499739E+01  0.50000500000E+01  0.51100000000E-03 0.  1.
         11   -1    0    0    0    0 -0.00000000000E+00 -0.00000000000E+00 -0.50000499739E+01  0.50000500000E+01  0.51100000000E-03 0. -1.
         50    1    1    2    0    0  0.53315461718E-02 -0.10540012526E-01  0.18986449151E-01  0.50000500000E+01  0.50000000000E+01 0.  1.
         50    1    1    2    0    0 -0.53315461718E-02  0.10540012526E-01 -0.18986449151E-01  0.50000500000E+01  0.50000000000E+01 0.  0.
</event>
<event>
 4    1  0.5060607E-021  0.5000050E+01  0.7818608E-02  0.2136455E+00
        -11   -1    0    0    0    0  0.00000000000E+00  0.00000000000E+00  0.50000499739E+01  0.50000500000E+01  0.51100000000E-03 0. -1.
         11   -1    0    0    0    0 -0.00000000000E+00 -0.00000000000E+00 -0.50000499739E+01  0.50000500000E+01  0.51100000000E-03 0.  1.
         50    1    1    2    0    0  0.17656181225E-01  0.12201463050E-01  0.62758317376E-02  0.50000500000E+01  0.50000000000E+01 0.  1.
         50    1    1    2    0    0 -0.17656181225E-01 -0.12201463050E-01 -0.62758317376E-02  0.50000500000E+01  0.50000000000E+01 0. -1.
</event>
<event>
 4    1  0.5060607E-021  0.5000050E+01  0.7818608E-02  0.2136455E+00
        -11   -1    0    0    0    0  0.00000000000E+00  0.00000000000E+00  0.50000499739E+01  0.50000500000E+01  0.51100000000E-03 0. -1.
         11   -1    0    0    0    0 -0.00000000000E+00 -0.00000000000E+00 -0.50000499739E+01  0.50000500000E+01  0.51100000000E-03 0.  1.
         50    1    1    2    0    0 -0.15991831459E-01 -0.13411091856E-01  0.80253624105E-02  0.50000500000E+01  0.50000000000E+01 0. -1.
         50    1    1    2    0    0  0.15991831459E-01  0.13411091856E-01 -0.80253624105E-02  0.50000500000E+01  0.50000000000E+01 0. -1.
</event>
<event>
 4    1  0.5060607E-021  0.5000050E+01  0.7818608E-02  0.2136455E+00
        -11   -1    0    0    0    0  0.00000000000E+00  0.00000000000E+00  0.50000499739E+01  0.50000500000E+01  0.51100000000E-03 0. -1.
         11   -1    0    0    0    0 -0.00000000000E+00 -0.00000000000E+00 -0.50000499739E+01  0.50000500000E+01  0.51100000000E-03 0.  1.
         50    1    1    2    0    0 -0.14922644342E-01 -0.11710377230E-01 -0.11839943031E-01  0.50000500000E+01  0.50000000000E+01 0.  0.
         50    1    1    2    0    0  0.14922644342E-01  0.11710377230E-01  0.11839943031E-01  0.50000500000E+01  0.50000000000E+01 0.  1.
</event>
<event>
 4    1  0.5060607E-021  0.5000050E+01  0.7818608E-02  0.2136455E+00
        -11   -1    0    0    0    0  0.00000000000E+00  0.00000000000E+00  0.50000499739E+01  0.50000500000E+01  0.51100000000E-03 0. -1.
         11   -1    0    0    0    0 -0.00000000000E+00 -0.00000000000E+00 -0.50000499739E+01  0.50000500000E+01  0.51100000000E-03 0.  1.
         50    1    1    2    0    0 -0.88610727410E-02 -0.20529719231E-01  0.12049133019E-03  0.50000500000E+01  0.50000000000E+01 0. -1.
         50    1    1    2    0    0  0.88610727410E-02  0.20529719231E-01 -0.12049133019E-03  0.50000500000E+01  0.50000000000E+01 0.  0.
</event>
<event>
 4    1  0.5060607E-021  0.5000050E+01  0.7818608E-02  0.2136455E+00
        -11   -1    0    0    0    0  0.00000000000E+00  0.00000000000E+00  0.50000499739E+01  0.50000500000E+01  0.51100000000E-03 0.  1.
         11   -1    0    0    0    0 -0.00000000000E+00 -0.00000000000E+00 -0.50000499739E+01  0.50000500000E+01  0.51100000000E-03 0. -1.
         50    1    1    2    0    0  0.10544514010E-02 -0.19771487614E-01 -0.10391290091E-01  0.50000500000E+01  0.50000000000E+01 0. -1.
         50    1    1    2    0    0 -0.10544514010E-02  0.19771487614E-01  0.10391290091E-01  0.50000500000E+01  0.50000000000E+01 0.  1.
</event>
<event>
 4    1  0.5060607E-021  0.5000050E+01  0.7818608E-02  0.2136455E+00
        -11   -1    0    0    0    0  0.00000000000E+00  0.00000000000E+00  0.50000499739E+01  0.50000500000E+01  0.51100000000E-03 0. -1.
         11   -1    0    0    0    0 -0.00000000000E+00 -0.00000000000E+00 -0.50000499739E+01  0.50000500000E+01  0.51100000000E-03 0.  1.
         50    1    1    2    0    0 -0.83839236094E-02 -0.13870221455E-01 -0.15405495179E-01  0.50000500000E+01  0.50000000000E+01 0.  1.
         50    1    1    2    0    0  0.83839236094E-02  0.13870221455E-01  0.15405495179E-01  0.50000500000E+01  0.50000000000E+01 0. -1.
</event>
<event>
 4    1  0.5060607E-021  0.5000050E+01  0.7818608E-02  0.2136455E+00
        -11   -1    0    0    0    0  0.00000000000E+00  0.00000000000E+00  0.50000499739E+01  0.50000500000E+01  0.51100000000E-03 0. -1.
         11   -1    0    0    0    0 -0.00000000000E+00 -0.00000000000E+00 -0.50000499739E+01  0.50000500000E+01  0.51100000000E-03 0.  1.
         50    1    1    2    0    0  0.19465758789E-01  0.60050175614E-02  0.92209814475E-02  0.50000500000E+01  0.50000000000E+01 0. -1.
         50    1    1    2    0    0 -0.19465758789E-01 -0.60050175614E-02 -0.92209814475E-02  0.50000500000E+01  0.50000000000E+01 0.  1.
</event>
<event>
 4    1  0.5060607E-021  0.5000050E+01  0.7818608E-02  0.2136455E+00
        -11   -1    0    0    0    0  0.00000000000E+00  0.00000000000E+00  0.50000499739E+01  0.50000500000E+01  0.51100000000E-03 0. -1.
         11   -1    0    0    0    0 -0.00000000000E+00 -0.00000000000E+00 -0.50000499739E+01  0.50000500000E+01  0.51100000000E-03 0.  1.
         50    1    1    2    0    0 -0.14882167117E-01 -0.16673527687E-01 -0.71908023361E-03  0.50000500000E+01  0.50000000000E+01 0. -1.
         50    1    1    2    0    0  0.14882167117E-01  0.16673527687E-01  0.71908023361E-03  0.50000500000E+01  0.50000000000E+01 0.  1.
</event>
<event>
 4    1  0.5060607E-021  0.5000050E+01  0.7818608E-02  0.2136455E+00
        -11   -1    0    0    0    0  0.00000000000E+00  0.00000000000E+00  0.50000499739E+01  0.50000500000E+01  0.51100000000E-03 0. -1.
         11   -1    0    0    0    0 -0.00000000000E+00 -0.00000000000E+00 -0.50000499739E+01  0.50000500000E+01  0.51100000000E-03 0.  1.
         50    1    1    2    0    0  0.99757204346E-02 -0.17496360785E-01 -0.97141577654E-02  0.50000500000E+01  0.50000000000E+01 0.  1.
         50    1    1    2    0    0 -0.99757204346E-02  0.17496360785E-01  0.97141577654E-02  0.50000500000E+01  0.50000000000E+01 0. -1.
</event>
<event>
 4    1  0.5060607E-021  0.5000050E+01  0.7818608E-02  0.2136455E+00
        -11   -1    0    0    0    0  0.00000000000E+00  0.00000000000E+00  0.50000499739E+01  0.50000500000E+01  0.51100000000E-03 0.  1.
         11   -1    0    0    0    0 -0.00000000000E+00 -0.00000000000E+00 -0.50000499739E+01  0.50000500000E+01  0.51100000000E-03 0. -1.
         50    1    1    2    0    0  0.15023052226E-01  0.13129643183E-01 -0.10095685797E-01  0.50000500000E+01  0.50000000000E+01 0. -1.
         50    1    1    2    0    0 -0.15023052226E-01 -0.13129643183E-01  0.10095685797E-01  0.50000500000E+01  0.50000000000E+01 0.  1.
</event>
<event>
 4    1  0.5060607E-021  0.5000050E+01  0.7818608E-02  0.2136455E+00
        -11   -1    0    0    0    0  0.00000000000E+00  0.00000000000E+00  0.50000499739E+01  0.50000500000E+01  0.51100000000E-03 0. -1.
         11   -1    0    0    0    0 -0.00000000000E+00 -0.00000000000E+00 -0.50000499739E+01  0.50000500000E+01  0.51100000000E-03 0.  1.
         50    1    1    2    0    0 -0.20184062302E-01 -0.22328807637E-02  0.93605754349E-02  0.50000500000E+01  0.50000000000E+01 0.  1.
         50    1    1    2    0    0  0.20184062302E-01  0.22328807637E-02 -0.93605754349E-02  0.50000500000E+01  0.50000000000E+01 0.  0.
</event>
<event>
 4    1  0.5060607E-021  0.5000050E+01  0.7818608E-02  0.2136455E+00
        -11   -1    0    0    0    0  0.00000000000E+00  0.00000000000E+00  0.50000499739E+01  0.50000500000E+01  0.51100000000E-03 0. -1.
         11   -1    0    0    0    0 -0.00000000000E+00 -0.00000000000E+00 -0.50000499739E+01  0.50000500000E+01  0.51100000000E-03 0.  1.
         50    1    1    2    0    0  0.18434429496E-01  0.12185767957E-01  0.34178017009E-02  0.50000500000E+01  0.50000000000E+01 0.  1.
         50    1    1    2    0    0 -0.18434429496E-01 -0.12185767957E-01 -0.34178017009E-02  0.50000500000E+01  0.50000000000E+01 0. -1.
</event>
<event>
 4    1  0.5060607E-021  0.5000050E+01  0.7818608E-02  0.2136455E+00
        -11   -1    0    0    0    0  0.00000000000E+00  0.00000000000E+00  0.50000499739E+01  0.50000500000E+01  0.51100000000E-03 0. -1.
         11   -1    0    0    0    0 -0.00000000000E+00 -0.00000000000E+00 -0.50000499739E+01  0.50000500000E+01  0.51100000000E-03 0.  1.
         50    1    1    2    0    0 -0.18243085756E-01 -0.12237056897E-01  0.41769319614E-02  0.50000500000E+01  0.50000000000E+01 0.  1.
         50    1    1    2    0    0  0.18243085756E-01  0.12237056897E-01 -0.41769319614E-02  0.50000500000E+01  0.50000000000E+01 0. -1.
</event>
<event>
 4    1  0.5060607E-021  0.5000050E+01  0.7818608E-02  0.2136455E+00
        -11   -1    0    0    0    0  0.00000000000E+00  0.00000000000E+00  0.50000499739E+01  0.50000500000E+01  0.51100000000E-03 0. -1.
         11   -1    0    0    0    0 -0.00000000000E+00 -0.00000000000E+00 -0.50000499739E+01  0.50000500000E+01  0.51100000000E-03 0.  1.
         50    1    1    2    0    0  0.21787159834E-03 -0.63297077316E-02  0.21445042131E-01  0.50000500000E+01  0.50000000000E+01 0.  0.
         50    1    1    2    0    0 -0.21787159834E-03  0.63297077316E-02 -0.21445042131E-01  0.50000500000E+01  0.50000000000E+01 0.  1.
</event>
<event>
 4    1  0.5060607E-021  0.5000050E+01  0.7818608E-02  0.2136455E+00
        -11   -1    0    0    0    0  0.00000000000E+00  0.00000000000E+00  0.50000499739E+01  0.50000500000E+01  0.51100000000E-03 0.  1.
         11   -1    0    0    0    0 -0.00000000000E+00 -0.00000000000E+00 -0.50000499739E+01  0.50000500000E+01  0.51100000000E-03 0. -1.
         50    1    1    2    0    0 -0.13693872473E-01  0.12408757823E-01  0.12589800872E-01  0.50000500000E+01  0.50000000000E+01 0.  0.
         50    1    1    2    0    0  0.13693872473E-01 -0.12408757823E-01 -0.12589800872E-01  0.50000500000E+01  0.50000000000E+01 0.  0.
</event>
<event>
 4    1  0.5060607E-021  0.5000050E+01  0.7818608E-02  0.2136455E+00
        -11   -1    0    0    0    0  0.00000000000E+00  0.00000000000E+00  0.50000499739E+01  0.50000500000E+01  0.51100000000E-03 0. -1.
         11   -1    0    0    0    0 -0.00000000000E+00 -0.00000000000E+00 -0.50000499739E+01  0.50000500000E+01  0.51100000000E-03 0.  1.
         50    1    1    2    0    0  0.63761214541E-02  0.11360332911E-01 -0.18173893676E-01  0.50000500000E+01  0.50000000000E+01 0.  0.
         50    1    1    2    0    0 -0.63761214541E-02 -0.11360332911E-01  0.18173893676E-01  0.50000500000E+01  0.50000000000E+01 0.  0.
</event>
<event>
 4    1  0.5060607E-021  0.5000050E+01  0.7818608E-02  0.2136455E+00
        -11   -1    0    0    0    0  0.00000000000E+00  0.00000000000E+00  0.50000499739E+01  0.50000500000E+01  0.51100000000E-03 0.  1.
         11   -1    0    0    0    0 -0.00000000000E+00 -0.00000000000E+00 -0.50000499739E+01  0.50000500000E+01  0.51100000000E-03 0. -1.
         50    1    1    2    0    0  0.20029929557E-01  0.50522090660E-02 -0.85603507801E-02  0.50000500000E+01  0.50000000000E+01 0. -1.
         50    1    1    2    0    0 -0.20029929557E-01 -0.50522090660E-02  0.85603507801E-02  0.50000500000E+01  0.50000000000E+01 0.  1.
</event>
<event>
 4    1  0.5060607E-021  0.5000050E+01  0.7818608E-02  0.2136455E+00
        -11   -1    0    0    0    0  0.00000000000E+00  0.00000000000E+00  0.50000499739E+01  0.50000500000E+01  0.51100000000E-03 0.  1.
         11   -1    0    0    0    0 -0.00000000000E+00 -0.00000000000E+00 -0.50000499739E+01  0.50000500000E+01  0.51100000000E-03 0. -1.
         50    1    1    2    0    0  0.86339633393E-02 -0.94805855078E-03  0.20604814050E-01  0.50000500000E+01  0.50000000000E+01 0.  0.
         50    1    1    2    0    0 -0.86339633393E-02  0.94805855078E-03 -0.20604814050E-01  0.50000500000E+01  0.50000000000E+01 0. -1.
</event>
<event>
 4    1  0.5060607E-021  0.5000050E+01  0.7818608E-02  0.2136455E+00
        -11   -1    0    0    0    0  0.00000000000E+00  0.00000000000E+00  0.50000499739E+01  0.50000500000E+01  0.51100000000E-03 0. -1.
         11   -1    0    0    0    0 -0.00000000000E+00 -0.00000000000E+00 -0.50000499739E+01  0.50000500000E+01  0.51100000000E-03 0.  1.
         50    1    1    2    0    0  0.47284675617E-02  0.19042413927E-01  0.10725230364E-01  0.50000500000E+01  0.50000000000E+01 0. -1.
         50    1    1    2    0    0 -0.47284675617E-02 -0.19042413927E-01 -0.10725230364E-01  0.50000500000E+01  0.50000000000E+01 0.  1.
</event>
<event>
 4    1  0.5060607E-021  0.5000050E+01  0.7818608E-02  0.2136455E+00
        -11   -1    0    0    0    0  0.00000000000E+00  0.00000000000E+00  0.50000499739E+01  0.50000500000E+01  0.51100000000E-03 0. -1.
         11   -1    0    0    0    0 -0.00000000000E+00 -0.00000000000E+00 -0.50000499739E+01  0.50000500000E+01  0.51100000000E-03 0.  1.
         50    1    1    2    0    0  0.26576647704E-02 -0.20932515691E-01  0.74006151635E-02  0.50000500000E+01  0.50000000000E+01 0. -1.
         50    1    1    2    0    0 -0.26576647704E-02  0.20932515691E-01 -0.74006151635E-02  0.50000500000E+01  0.50000000000E+01 0.  1.
</event>
<event>
 4    1  0.5060607E-021  0.5000050E+01  0.7818608E-02  0.2136455E+00
        -11   -1    0    0    0    0  0.00000000000E+00  0.00000000000E+00  0.50000499739E+01  0.50000500000E+01  0.51100000000E-03 0. -1.
         11   -1    0    0    0    0 -0.00000000000E+00 -0.00000000000E+00 -0.50000499739E+01  0.50000500000E+01  0.51100000000E-03 0.  1.
         50    1    1    2    0    0  0.22006061818E-01 -0.35187839309E-02  0.18313664009E-02  0.50000500000E+01  0.50000000000E+01 0.  1.
         50    1    1    2    0    0 -0.22006061818E-01  0.35187839309E-02 -0.18313664009E-02  0.50000500000E+01  0.50000000000E+01 0. -1.
</event>
<event>
 4    1  0.5060607E-021  0.5000050E+01  0.7818608E-02  0.2136455E+00
        -11   -1    0    0    0    0  0.00000000000E+00  0.00000000000E+00  0.50000499739E+01  0.50000500000E+01  0.51100000000E-03 0. -1.
         11   -1    0    0    0    0 -0.00000000000E+00 -0.00000000000E+00 -0.50000499739E+01  0.50000500000E+01  0.51100000000E-03 0.  1.
         50    1    1    2    0    0  0.72164746632E-03 -0.68031780839E-02 -0.21288459148E-01  0.50000500000E+01  0.50000000000E+01 0.  0.
         50    1    1    2    0    0 -0.72164746632E-03  0.68031780839E-02  0.21288459148E-01  0.50000500000E+01  0.50000000000E+01 0. -1.
</event>
<event>
 4    1  0.5060607E-021  0.5000050E+01  0.7818608E-02  0.2136455E+00
        -11   -1    0    0    0    0  0.00000000000E+00  0.00000000000E+00  0.50000499739E+01  0.50000500000E+01  0.51100000000E-03 0. -1.
         11   -1    0    0    0    0 -0.00000000000E+00 -0.00000000000E+00 -0.50000499739E+01  0.50000500000E+01  0.51100000000E-03 0.  1.
         50    1    1    2    0    0 -0.16945409419E-01 -0.12821196185E-01  0.69622214845E-02  0.50000500000E+01  0.50000000000E+01 0. -1.
         50    1    1    2    0    0  0.16945409419E-01  0.12821196185E-01 -0.69622214845E-02  0.50000500000E+01  0.50000000000E+01 0.  1.
</event>
<event>
 4    1  0.5060607E-021  0.5000050E+01  0.7818608E-02  0.2136455E+00
        -11   -1    0    0    0    0  0.00000000000E+00  0.00000000000E+00  0.50000499739E+01  0.50000500000E+01  0.51100000000E-03 0. -1.
         11   -1    0    0    0    0 -0.00000000000E+00 -0.00000000000E+00 -0.50000499739E+01  0.50000500000E+01  0.51100000000E-03 0.  1.
         50    1    1    2    0    0  0.57647168421E-03 -0.70590862931E-02  0.21209419631E-01  0.50000500000E+01  0.50000000000E+01 0.  0.
         50    1    1    2    0    0 -0.57647168421E-03  0.70590862931E-02 -0.21209419631E-01  0.50000500000E+01  0.50000000000E+01 0.  0.
</event>
<event>
 4    1  0.5060607E-021  0.5000050E+01  0.7818608E-02  0.2136455E+00
        -11   -1    0    0    0    0  0.00000000000E+00  0.00000000000E+00  0.50000499739E+01  0.50000500000E+01  0.51100000000E-03 0.  1.
         11   -1    0    0    0    0 -0.00000000000E+00 -0.00000000000E+00 -0.50000499739E+01  0.50000500000E+01  0.51100000000E-03 0. -1.
         50    1    1    2    0    0  0.60914688752E-02  0.21513918817E-01 -0.21864147069E-03  0.50000500000E+01  0.50000000000E+01 0.  0.
         50    1    1    2    0    0 -0.60914688752E-02 -0.21513918817E-01  0.21864147069E-03  0.50000500000E+01  0.50000000000E+01 0.  1.
</event>
<event>
 4    1  0.5060607E-021  0.5000050E+01  0.7818608E-02  0.2136455E+00
        -11   -1    0    0    0    0  0.00000000000E+00  0.00000000000E+00  0.50000499739E+01  0.50000500000E+01  0.51100000000E-03 0.  1.
         11   -1    0    0    0    0 -0.00000000000E+00 -0.00000000000E+00 -0.50000499739E+01  0.50000500000E+01  0.51100000000E-03 0. -1.
         50    1    1    2    0    0  0.14348740047E-01 -0.74578310129E-02 -0.15443345352E-01  0.50000500000E+01  0.50000000000E+01 0.  0.
         50    1    1    2    0    0 -0.14348740047E-01  0.74578310129E-02  0.15443345352E-01  0.50000500000E+01  0.50000000000E+01 0.  1.
</event>
<event>
 4    1  0.5060607E-021  0.5000050E+01  0.7818608E-02  0.2136455E+00
        -11   -1    0    0    0    0  0.00000000000E+00  0.00000000000E+00  0.50000499739E+01  0.50000500000E+01  0.51100000000E-03 0.  1.
         11   -1    0    0    0    0 -0.00000000000E+00 -0.00000000000E+00 -0.50000499739E+01  0.50000500000E+01  0.51100000000E-03 0. -1.
         50    1    1    2    0    0 -0.20067409325E-01 -0.74664231288E-02  0.64462476389E-02  0.50000500000E+01  0.50000000000E+01 0.  0.
         50    1    1    2    0    0  0.20067409325E-01  0.74664231288E-02 -0.64462476389E-02  0.50000500000E+01  0.50000000000E+01 0.  0.
</event>
<event>
 4    1  0.5060607E-021  0.5000050E+01  0.7818608E-02  0.2136455E+00
        -11   -1    0    0    0    0  0.00000000000E+00  0.00000000000E+00  0.50000499739E+01  0.50000500000E+01  0.51100000000E-03 0.  1.
         11   -1    0    0    0    0 -0.00000000000E+00 -0.00000000000E+00 -0.50000499739E+01  0.50000500000E+01  0.51100000000E-03 0. -1.
         50    1    1    2    0    0  0.79224714844E-02  0.20196057129E-01 -0.54181382429E-02  0.50000500000E+01  0.50000000000E+01 0.  0.
         50    1    1    2    0    0 -0.79224714844E-02 -0.20196057129E-01  0.54181382429E-02  0.50000500000E+01  0.50000000000E+01 0.  1.
</event>
<event>
 4    1  0.5060607E-021  0.5000050E+01  0.7818608E-02  0.2136455E+00
        -11   -1    0    0    0    0  0.00000000000E+00  0.00000000000E+00  0.50000499739E+01  0.50000500000E+01  0.51100000000E-03 0.  1.
         11   -1    0    0    0    0 -0.00000000000E+00 -0.00000000000E+00 -0.50000499739E+01  0.50000500000E+01  0.51100000000E-03 0. -1.
         50    1    1    2    0    0  0.52144781844E-02  0.10053076774E-01 -0.19280751143E-01  0.50000500000E+01  0.50000000000E+01 0.  0.
         50    1    1    2    0    0 -0.52144781844E-02 -0.10053076774E-01  0.19280751143E-01  0.50000500000E+01  0.50000000000E+01 0.  0.
</event>
<event>
 4    1  0.5060607E-021  0.5000050E+01  0.7818608E-02  0.2136455E+00
        -11   -1    0    0    0    0  0.00000000000E+00  0.00000000000E+00  0.50000499739E+01  0.50000500000E+01  0.51100000000E-03 0. -1.
         11   -1    0    0    0    0 -0.00000000000E+00 -0.00000000000E+00 -0.50000499739E+01  0.50000500000E+01  0.51100000000E-03 0.  1.
         50    1    1    2    0    0  0.63267588761E-02  0.84534267459E-02  0.19710763516E-01  0.50000500000E+01  0.50000000000E+01 0. -1.
         50    1    1    2    0    0 -0.63267588761E-02 -0.84534267459E-02 -0.19710763516E-01  0.50000500000E+01  0.50000000000E+01 0.  0.
</event>
<event>
 4    1  0.5060607E-021  0.5000050E+01  0.7818608E-02  0.2136455E+00
        -11   -1    0    0    0    0  0.00000000000E+00  0.00000000000E+00  0.50000499739E+01  0.50000500000E+01  0.51100000000E-03 0.  1.
         11   -1    0    0    0    0 -0.00000000000E+00 -0.00000000000E+00 -0.50000499739E+01  0.50000500000E+01  0.51100000000E-03 0. -1.
         50    1    1    2    0    0  0.19710621247E-01  0.77061384034E-02  0.72186800018E-02  0.50000500000E+01  0.50000000000E+01 0. -1.
         50    1    1    2    0    0 -0.19710621247E-01 -0.77061384034E-02 -0.72186800018E-02  0.50000500000E+01  0.50000000000E+01 0.  0.
</event>
<event>
 4    1  0.5060607E-021  0.5000050E+01  0.7818608E-02  0.2136455E+00
        -11   -1    0    0    0    0  0.00000000000E+00  0.00000000000E+00  0.50000499739E+01  0.50000500000E+01  0.51100000000E-03 0.  1.
         11   -1    0    0    0    0 -0.00000000000E+00 -0.00000000000E+00 -0.50000499739E+01  0.50000500000E+01  0.51100000000E-03 0. -1.
         50    1    1    2    0    0 -0.22286422360E-01 -0.10239412107E-02  0.15064603457E-02  0.50000500000E+01  0.50000000000E+01 0. -1.
         50    1    1    2    0    0  0.22286422360E-01  0.10239412107E-02 -0.15064603457E-02  0.50000500000E+01  0.50000000000E+01 0.  0.
</event>
<event>
 4    1  0.5060607E-021  0.5000050E+01  0.7818608E-02  0.2136455E+00
        -11   -1    0    0    0    0  0.00000000000E+00  0.00000000000E+00  0.50000499739E+01  0.50000500000E+01  0.51100000000E-03 0.  1.
         11   -1    0    0    0    0 -0.00000000000E+00 -0.00000000000E+00 -0.50000499739E+01  0.50000500000E+01  0.51100000000E-03 0. -1.
         50    1    1    2    0    0  0.22217996874E-01 -0.20770992776E-02  0.14313537307E-02  0.50000500000E+01  0.50000000000E+01 0.  1.
         50    1    1    2    0    0 -0.22217996874E-01  0.20770992776E-02 -0.14313537307E-02  0.50000500000E+01  0.50000000000E+01 0. -1.
</event>
<event>
 4    1  0.5060607E-021  0.5000050E+01  0.7818608E-02  0.2136455E+00
        -11   -1    0    0    0    0  0.00000000000E+00  0.00000000000E+00  0.50000499739E+01  0.50000500000E+01  0.51100000000E-03 0.  1.
         11   -1    0    0    0    0 -0.00000000000E+00 -0.00000000000E+00 -0.50000499739E+01  0.50000500000E+01  0.51100000000E-03 0. -1.
         50    1    1    2    0    0 -0.48869503956E-02 -0.21668135141E-01  0.25714072687E-02  0.50000500000E+01  0.50000000000E+01 0.  0.
         50    1    1    2    0    0  0.48869503956E-02  0.21668135141E-01 -0.25714072687E-02  0.50000500000E+01  0.50000000000E+01 0.  1.
</event>
<event>
 4    1  0.5060607E-021  0.5000050E+01  0.7818608E-02  0.2136455E+00
        -11   -1    0    0    0    0  0.00000000000E+00  0.00000000000E+00  0.50000499739E+01  0.50000500000E+01  0.51100000000E-03 0. -1.
         11   -1    0    0    0    0 -0.00000000000E+00 -0.00000000000E+00 -0.50000499739E+01  0.50000500000E+01  0.51100000000E-03 0.  1.
         50    1    1    2    0    0 -0.59888432930E-02 -0.14598635353E-01  0.15843487679E-01  0.50000500000E+01  0.50000000000E+01 0. -1.
         50    1    1    2    0    0  0.59888432930E-02  0.14598635353E-01 -0.15843487679E-01  0.50000500000E+01  0.50000000000E+01 0.  1.
</event>
<event>
 4    1  0.5060607E-021  0.5000050E+01  0.7818608E-02  0.2136455E+00
        -11   -1    0    0    0    0  0.00000000000E+00  0.00000000000E+00  0.50000499739E+01  0.50000500000E+01  0.51100000000E-03 0. -1.
         11   -1    0    0    0    0 -0.00000000000E+00 -0.00000000000E+00 -0.50000499739E+01  0.50000500000E+01  0.51100000000E-03 0.  1.
         50    1    1    2    0    0  0.21364615947E-01 -0.64555524657E-02 -0.13716879338E-02  0.50000500000E+01  0.50000000000E+01 0. -1.
         50    1    1    2    0    0 -0.21364615947E-01  0.64555524657E-02  0.13716879338E-02  0.50000500000E+01  0.50000000000E+01 0.  0.
</event>
<event>
 4    1  0.5060607E-021  0.5000050E+01  0.7818608E-02  0.2136455E+00
        -11   -1    0    0    0    0  0.00000000000E+00  0.00000000000E+00  0.50000499739E+01  0.50000500000E+01  0.51100000000E-03 0.  1.
         11   -1    0    0    0    0 -0.00000000000E+00 -0.00000000000E+00 -0.50000499739E+01  0.50000500000E+01  0.51100000000E-03 0. -1.
         50    1    1    2    0    0  0.21482437328E-01 -0.42651339036E-02 -0.45073295002E-02  0.50000500000E+01  0.50000000000E+01 0.  1.
         50    1    1    2    0    0 -0.21482437328E-01  0.42651339036E-02  0.45073295002E-02  0.50000500000E+01  0.50000000000E+01 0.  0.
</event>
<event>
 4    1  0.5060607E-021  0.5000050E+01  0.7818608E-02  0.2136455E+00
        -11   -1    0    0    0    0  0.00000000000E+00  0.00000000000E+00  0.50000499739E+01  0.50000500000E+01  0.51100000000E-03 0. -1.
         11   -1    0    0    0    0 -0.00000000000E+00 -0.00000000000E+00 -0.50000499739E+01  0.50000500000E+01  0.51100000000E-03 0.  1.
         50    1    1    2    0    0 -0.98680264849E-02  0.16608990632E-01  0.11259040078E-01  0.50000500000E+01  0.50000000000E+01 0. -1.
         50    1    1    2    0    0  0.98680264849E-02 -0.16608990632E-01 -0.11259040078E-01  0.50000500000E+01  0.50000000000E+01 0.  1.
</event>
<event>
 4    1  0.5060607E-021  0.5000050E+01  0.7818608E-02  0.2136455E+00
        -11   -1    0    0    0    0  0.00000000000E+00  0.00000000000E+00  0.50000499739E+01  0.50000500000E+01  0.51100000000E-03 0.  1.
         11   -1    0    0    0    0 -0.00000000000E+00 -0.00000000000E+00 -0.50000499739E+01  0.50000500000E+01  0.51100000000E-03 0. -1.
         50    1    1    2    0    0  0.99511366335E-02  0.16617723509E-02 -0.19955347463E-01  0.50000500000E+01  0.50000000000E+01 0. -1.
         50    1    1    2    0    0 -0.99511366335E-02 -0.16617723509E-02  0.19955347463E-01  0.50000500000E+01  0.50000000000E+01 0.  0.
</event>
<event>
 4    1  0.5060607E-021  0.5000050E+01  0.7818608E-02  0.2136455E+00
        -11   -1    0    0    0    0  0.00000000000E+00  0.00000000000E+00  0.50000499739E+01  0.50000500000E+01  0.51100000000E-03 0. -1.
         11   -1    0    0    0    0 -0.00000000000E+00 -0.00000000000E+00 -0.50000499739E+01  0.50000500000E+01  0.51100000000E-03 0.  1.
         50    1    1    2    0    0 -0.17896097561E-01 -0.97463381521E-02 -0.92054920942E-02  0.50000500000E+01  0.50000000000E+01 0. -1.
         50    1    1    2    0    0  0.17896097561E-01  0.97463381521E-02  0.92054920942E-02  0.50000500000E+01  0.50000000000E+01 0.  1.
</event>
<event>
 4    1  0.5060607E-021  0.5000050E+01  0.7818608E-02  0.2136455E+00
        -11   -1    0    0    0    0  0.00000000000E+00  0.00000000000E+00  0.50000499739E+01  0.50000500000E+01  0.51100000000E-03 0. -1.
         11   -1    0    0    0    0 -0.00000000000E+00 -0.00000000000E+00 -0.50000499739E+01  0.50000500000E+01  0.51100000000E-03 0.  1.
         50    1    1    2    0    0 -0.12684340366E-01 -0.17771329426E-01 -0.48259568904E-02  0.50000500000E+01  0.50000000000E+01 0.  0.
         50    1    1    2    0    0  0.12684340366E-01  0.17771329426E-01  0.48259568904E-02  0.50000500000E+01  0.50000000000E+01 0. -1.
</event>
<event>
 4    1  0.5060607E-021  0.5000050E+01  0.7818608E-02  0.2136455E+00
        -11   -1    0    0    0    0  0.00000000000E+00  0.00000000000E+00  0.50000499739E+01  0.50000500000E+01  0.51100000000E-03 0.  1.
         11   -1    0    0    0    0 -0.00000000000E+00 -0.00000000000E+00 -0.50000499739E+01  0.50000500000E+01  0.51100000000E-03 0. -1.
         50    1    1    2    0    0  0.21720145477E-01 -0.12455922326E-02  0.51658765398E-02  0.50000500000E+01  0.50000000000E+01 0.  1.
         50    1    1    2    0    0 -0.21720145477E-01  0.12455922326E-02 -0.51658765398E-02  0.50000500000E+01  0.50000000000E+01 0. -1.
</event>
<event>
 4    1  0.5060607E-021  0.5000050E+01  0.7818608E-02  0.2136455E+00
        -11   -1    0    0    0    0  0.00000000000E+00  0.00000000000E+00  0.50000499739E+01  0.50000500000E+01  0.51100000000E-03 0.  1.
         11   -1    0    0    0    0 -0.00000000000E+00 -0.00000000000E+00 -0.50000499739E+01  0.50000500000E+01  0.51100000000E-03 0. -1.
         50    1    1    2    0    0 -0.17516700960E-01  0.58499780571E-02 -0.12607356749E-01  0.50000500000E+01  0.50000000000E+01 0.  0.
         50    1    1    2    0    0  0.17516700960E-01 -0.58499780571E-02  0.12607356749E-01  0.50000500000E+01  0.50000000000E+01 0.  0.
</event>
<event>
 4    1  0.5060607E-021  0.5000050E+01  0.7818608E-02  0.2136455E+00
        -11   -1    0    0    0    0  0.00000000000E+00  0.00000000000E+00  0.50000499739E+01  0.50000500000E+01  0.51100000000E-03 0.  1.
         11   -1    0    0    0    0 -0.00000000000E+00 -0.00000000000E+00 -0.50000499739E+01  0.50000500000E+01  0.51100000000E-03 0. -1.
         50    1    1    2    0    0  0.27043677763E-02  0.11417131335E-01  0.19035178145E-01  0.50000500000E+01  0.50000000000E+01 0.  1.
         50    1    1    2    0    0 -0.27043677763E-02 -0.11417131335E-01 -0.19035178145E-01  0.50000500000E+01  0.50000000000E+01 0.  0.
</event>
<event>
 4    1  0.5060607E-021  0.5000050E+01  0.7818608E-02  0.2136455E+00
        -11   -1    0    0    0    0  0.00000000000E+00  0.00000000000E+00  0.50000499739E+01  0.50000500000E+01  0.51100000000E-03 0.  1.
         11   -1    0    0    0    0 -0.00000000000E+00 -0.00000000000E+00 -0.50000499739E+01  0.50000500000E+01  0.51100000000E-03 0. -1.
         50    1    1    2    0    0 -0.20076362595E-02 -0.96740499799E-02 -0.20059527752E-01  0.50000500000E+01  0.50000000000E+01 0. -1.
         50    1    1    2    0    0  0.20076362595E-02  0.96740499799E-02  0.20059527752E-01  0.50000500000E+01  0.50000000000E+01 0.  1.
</event>
<event>
 4    1  0.5060607E-021  0.5000050E+01  0.7818608E-02  0.2136455E+00
        -11   -1    0    0    0    0  0.00000000000E+00  0.00000000000E+00  0.50000499739E+01  0.50000500000E+01  0.51100000000E-03 0. -1.
         11   -1    0    0    0    0 -0.00000000000E+00 -0.00000000000E+00 -0.50000499739E+01  0.50000500000E+01  0.51100000000E-03 0.  1.
         50    1    1    2    0    0 -0.15063357349E-01 -0.16486804793E-01 -0.11327105092E-02  0.50000500000E+01  0.50000000000E+01 0. -1.
         50    1    1    2    0    0  0.15063357349E-01  0.16486804793E-01  0.11327105092E-02  0.50000500000E+01  0.50000000000E+01 0.  1.
</event>
<event>
 4    1  0.5060607E-021  0.5000050E+01  0.7818608E-02  0.2136455E+00
        -11   -1    0    0    0    0  0.00000000000E+00  0.00000000000E+00  0.50000499739E+01  0.50000500000E+01  0.51100000000E-03 0. -1.
         11   -1    0    0    0    0 -0.00000000000E+00 -0.00000000000E+00 -0.50000499739E+01  0.50000500000E+01  0.51100000000E-03 0.  1.
         50    1    1    2    0    0  0.83252499800E-02 -0.44085628088E-02  0.20279479449E-01  0.50000500000E+01  0.50000000000E+01 0. -1.
         50    1    1    2    0    0 -0.83252499800E-02  0.44085628088E-02 -0.20279479449E-01  0.50000500000E+01  0.50000000000E+01 0.  1.
</event>
<event>
 4    1  0.5060607E-021  0.5000050E+01  0.7818608E-02  0.2136455E+00
        -11   -1    0    0    0    0  0.00000000000E+00  0.00000000000E+00  0.50000499739E+01  0.50000500000E+01  0.51100000000E-03 0.  1.
         11   -1    0    0    0    0 -0.00000000000E+00 -0.00000000000E+00 -0.50000499739E+01  0.50000500000E+01  0.51100000000E-03 0. -1.
         50    1    1    2    0    0 -0.12280563270E-01 -0.18082336960E-01  0.47137411703E-02  0.50000500000E+01  0.50000000000E+01 0. -1.
         50    1    1    2    0    0  0.12280563270E-01  0.18082336960E-01 -0.47137411703E-02  0.50000500000E+01  0.50000000000E+01 0.  1.
</event>
<event>
 4    1  0.5060607E-021  0.5000050E+01  0.7818608E-02  0.2136455E+00
        -11   -1    0    0    0    0  0.00000000000E+00  0.00000000000E+00  0.50000499739E+01  0.50000500000E+01  0.51100000000E-03 0.  1.
         11   -1    0    0    0    0 -0.00000000000E+00 -0.00000000000E+00 -0.50000499739E+01  0.50000500000E+01  0.51100000000E-03 0. -1.
         50    1    1    2    0    0  0.18355432819E-01  0.12624228434E-01  0.19259912915E-02  0.50000500000E+01  0.50000000000E+01 0.  1.
         50    1    1    2    0    0 -0.18355432819E-01 -0.12624228434E-01 -0.19259912915E-02  0.50000500000E+01  0.50000000000E+01 0.  0.
</event>
<event>
 4    1  0.5060607E-021  0.5000050E+01  0.7818608E-02  0.2136455E+00
        -11   -1    0    0    0    0  0.00000000000E+00  0.00000000000E+00  0.50000499739E+01  0.50000500000E+01  0.51100000000E-03 0.  1.
         11   -1    0    0    0    0 -0.00000000000E+00 -0.00000000000E+00 -0.50000499739E+01  0.50000500000E+01  0.51100000000E-03 0. -1.
         50    1    1    2    0    0  0.57130443346E-02 -0.13909442175E-01  0.16549653857E-01  0.50000500000E+01  0.50000000000E+01 0.  1.
         50    1    1    2    0    0 -0.57130443346E-02  0.13909442175E-01 -0.16549653857E-01  0.50000500000E+01  0.50000000000E+01 0. -1.
</event>
<event>
 4    1  0.5060607E-021  0.5000050E+01  0.7818608E-02  0.2136455E+00
        -11   -1    0    0    0    0  0.00000000000E+00  0.00000000000E+00  0.50000499739E+01  0.50000500000E+01  0.51100000000E-03 0.  1.
         11   -1    0    0    0    0 -0.00000000000E+00 -0.00000000000E+00 -0.50000499739E+01  0.50000500000E+01  0.51100000000E-03 0. -1.
         50    1    1    2    0    0 -0.18281824401E-01 -0.12864986094E-01  0.51916216995E-03  0.50000500000E+01  0.50000000000E+01 0.  1.
         50    1    1    2    0    0  0.18281824401E-01  0.12864986094E-01 -0.51916216995E-03  0.50000500000E+01  0.50000000000E+01 0. -1.
</event>
<event>
 4    1  0.5060607E-021  0.5000050E+01  0.7818608E-02  0.2136455E+00
        -11   -1    0    0    0    0  0.00000000000E+00  0.00000000000E+00  0.50000499739E+01  0.50000500000E+01  0.51100000000E-03 0. -1.
         11   -1    0    0    0    0 -0.00000000000E+00 -0.00000000000E+00 -0.50000499739E+01  0.50000500000E+01  0.51100000000E-03 0.  1.
         50    1    1    2    0    0  0.66423469596E-02 -0.16743837847E-01 -0.13248608268E-01  0.50000500000E+01  0.50000000000E+01 0.  1.
         50    1    1    2    0    0 -0.66423469596E-02  0.16743837847E-01  0.13248608268E-01  0.50000500000E+01  0.50000000000E+01 0.  1.
</event>
<event>
 4    1  0.5060607E-021  0.5000050E+01  0.7818608E-02  0.2136455E+00
        -11   -1    0    0    0    0  0.00000000000E+00  0.00000000000E+00  0.50000499739E+01  0.50000500000E+01  0.51100000000E-03 0. -1.
         11   -1    0    0    0    0 -0.00000000000E+00 -0.00000000000E+00 -0.50000499739E+01  0.50000500000E+01  0.51100000000E-03 0.  1.
         50    1    1    2    0    0 -0.20452908893E-01 -0.10605371918E-02  0.89753149614E-02  0.50000500000E+01  0.50000000000E+01 0. -1.
         50    1    1    2    0    0  0.20452908893E-01  0.10605371918E-02 -0.89753149614E-02  0.50000500000E+01  0.50000000000E+01 0.  1.
</event>
<event>
 4    1  0.5060607E-021  0.5000050E+01  0.7818608E-02  0.2136455E+00
        -11   -1    0    0    0    0  0.00000000000E+00  0.00000000000E+00  0.50000499739E+01  0.50000500000E+01  0.51100000000E-03 0.  1.
         11   -1    0    0    0    0 -0.00000000000E+00 -0.00000000000E+00 -0.50000499739E+01  0.50000500000E+01  0.51100000000E-03 0. -1.
         50    1    1    2    0    0  0.59534946482E-02 -0.94038565539E-02  0.19393965128E-01  0.50000500000E+01  0.50000000000E+01 0.  1.
         50    1    1    2    0    0 -0.59534946482E-02  0.94038565539E-02 -0.19393965128E-01  0.50000500000E+01  0.50000000000E+01 0.  0.
</event>
<event>
 4    1  0.5060607E-021  0.5000050E+01  0.7818608E-02  0.2136455E+00
        -11   -1    0    0    0    0  0.00000000000E+00  0.00000000000E+00  0.50000499739E+01  0.50000500000E+01  0.51100000000E-03 0. -1.
         11   -1    0    0    0    0 -0.00000000000E+00 -0.00000000000E+00 -0.50000499739E+01  0.50000500000E+01  0.51100000000E-03 0.  1.
         50    1    1    2    0    0  0.14179254627E-01 -0.21577529966E-02 -0.17155038334E-01  0.50000500000E+01  0.50000000000E+01 0.  0.
         50    1    1    2    0    0 -0.14179254627E-01  0.21577529966E-02  0.17155038334E-01  0.50000500000E+01  0.50000000000E+01 0. -1.
</event>
<event>
 4    1  0.5060607E-021  0.5000050E+01  0.7818608E-02  0.2136455E+00
        -11   -1    0    0    0    0  0.00000000000E+00  0.00000000000E+00  0.50000499739E+01  0.50000500000E+01  0.51100000000E-03 0. -1.
         11   -1    0    0    0    0 -0.00000000000E+00 -0.00000000000E+00 -0.50000499739E+01  0.50000500000E+01  0.51100000000E-03 0.  1.
         50    1    1    2    0    0  0.24694200906E-02 -0.17875307474E-01 -0.13205220449E-01  0.50000500000E+01  0.50000000000E+01 0.  0.
         50    1    1    2    0    0 -0.24694200906E-02  0.17875307474E-01  0.13205220449E-01  0.50000500000E+01  0.50000000000E+01 0.  0.
</event>
<event>
 4    1  0.5060607E-021  0.5000050E+01  0.7818608E-02  0.2136455E+00
        -11   -1    0    0    0    0  0.00000000000E+00  0.00000000000E+00  0.50000499739E+01  0.50000500000E+01  0.51100000000E-03 0.  1.
         11   -1    0    0    0    0 -0.00000000000E+00 -0.00000000000E+00 -0.50000499739E+01  0.50000500000E+01  0.51100000000E-03 0. -1.
         50    1    1    2    0    0  0.17216171730E-01  0.14154491372E-01 -0.18045234706E-02  0.50000500000E+01  0.50000000000E+01 0.  1.
         50    1    1    2    0    0 -0.17216171730E-01 -0.14154491372E-01  0.18045234706E-02  0.50000500000E+01  0.50000000000E+01 0.  0.
</event>
<event>
 4    1  0.5060607E-021  0.5000050E+01  0.7818608E-02  0.2136455E+00
        -11   -1    0    0    0    0  0.00000000000E+00  0.00000000000E+00  0.50000499739E+01  0.50000500000E+01  0.51100000000E-03 0. -1.
         11   -1    0    0    0    0 -0.00000000000E+00 -0.00000000000E+00 -0.50000499739E+01  0.50000500000E+01  0.51100000000E-03 0.  1.
         50    1    1    2    0    0  0.42835388754E-02  0.21418887643E-01  0.47838318137E-02  0.50000500000E+01  0.50000000000E+01 0.  0.
         50    1    1    2    0    0 -0.42835388754E-02 -0.21418887643E-01 -0.47838318137E-02  0.50000500000E+01  0.50000000000E+01 0. -1.
</event>
<event>
 4    1  0.5060607E-021  0.5000050E+01  0.7818608E-02  0.2136455E+00
        -11   -1    0    0    0    0  0.00000000000E+00  0.00000000000E+00  0.50000499739E+01  0.50000500000E+01  0.51100000000E-03 0. -1.
         11   -1    0    0    0    0 -0.00000000000E+00 -0.00000000000E+00 -0.50000499739E+01  0.50000500000E+01  0.51100000000E-03 0.  1.
         50    1    1    2    0    0 -0.21493417333E-01  0.58312605416E-02 -0.20079621078E-02  0.50000500000E+01  0.50000000000E+01 0. -1.
         50    1    1    2    0    0  0.21493417333E-01 -0.58312605416E-02  0.20079621078E-02  0.50000500000E+01  0.50000000000E+01 0.  1.
</event>
<event>
 4    1  0.5060607E-021  0.5000050E+01  0.7818608E-02  0.2136455E+00
        -11   -1    0    0    0    0  0.00000000000E+00  0.00000000000E+00  0.50000499739E+01  0.50000500000E+01  0.51100000000E-03 0.  1.
         11   -1    0    0    0    0 -0.00000000000E+00 -0.00000000000E+00 -0.50000499739E+01  0.50000500000E+01  0.51100000000E-03 0. -1.
         50    1    1    2    0    0 -0.16967617725E-01  0.11645675127E-01 -0.87453244401E-02  0.50000500000E+01  0.50000000000E+01 0.  0.
         50    1    1    2    0    0  0.16967617725E-01 -0.11645675127E-01  0.87453244401E-02  0.50000500000E+01  0.50000000000E+01 0. -1.
</event>
<event>
 4    1  0.5060607E-021  0.5000050E+01  0.7818608E-02  0.2136455E+00
        -11   -1    0    0    0    0  0.00000000000E+00  0.00000000000E+00  0.50000499739E+01  0.50000500000E+01  0.51100000000E-03 0.  1.
         11   -1    0    0    0    0 -0.00000000000E+00 -0.00000000000E+00 -0.50000499739E+01  0.50000500000E+01  0.51100000000E-03 0. -1.
         50    1    1    2    0    0 -0.74951607263E-02 -0.19293191484E-01 -0.84615499780E-02  0.50000500000E+01  0.50000000000E+01 0.  1.
         50    1    1    2    0    0  0.74951607263E-02  0.19293191484E-01  0.84615499780E-02  0.50000500000E+01  0.50000000000E+01 0.  0.
</event>
<event>
 4    1  0.5060607E-021  0.5000050E+01  0.7818608E-02  0.2136455E+00
        -11   -1    0    0    0    0  0.00000000000E+00  0.00000000000E+00  0.50000499739E+01  0.50000500000E+01  0.51100000000E-03 0. -1.
         11   -1    0    0    0    0 -0.00000000000E+00 -0.00000000000E+00 -0.50000499739E+01  0.50000500000E+01  0.51100000000E-03 0.  1.
         50    1    1    2    0    0 -0.89826463258E-02 -0.15327248849E-01 -0.13579028231E-01  0.50000500000E+01  0.50000000000E+01 0.  1.
         50    1    1    2    0    0  0.89826463258E-02  0.15327248849E-01  0.13579028231E-01  0.50000500000E+01  0.50000000000E+01 0. -1.
</event>
<event>
 4    1  0.5060607E-021  0.5000050E+01  0.7818608E-02  0.2136455E+00
        -11   -1    0    0    0    0  0.00000000000E+00  0.00000000000E+00  0.50000499739E+01  0.50000500000E+01  0.51100000000E-03 0. -1.
         11   -1    0    0    0    0 -0.00000000000E+00 -0.00000000000E+00 -0.50000499739E+01  0.50000500000E+01  0.51100000000E-03 0.  1.
         50    1    1    2    0    0 -0.36122942055E-02 -0.22013600936E-01 -0.15346675174E-02  0.50000500000E+01  0.50000000000E+01 0. -1.
         50    1    1    2    0    0  0.36122942055E-02  0.22013600936E-01  0.15346675174E-02  0.50000500000E+01  0.50000000000E+01 0.  1.
</event>
<event>
 4    1  0.5060607E-021  0.5000050E+01  0.7818608E-02  0.2136455E+00
        -11   -1    0    0    0    0  0.00000000000E+00  0.00000000000E+00  0.50000499739E+01  0.50000500000E+01  0.51100000000E-03 0.  1.
         11   -1    0    0    0    0 -0.00000000000E+00 -0.00000000000E+00 -0.50000499739E+01  0.50000500000E+01  0.51100000000E-03 0. -1.
         50    1    1    2    0    0 -0.65699418432E-02 -0.96002203511E-02  0.19096442951E-01  0.50000500000E+01  0.50000000000E+01 0. -1.
         50    1    1    2    0    0  0.65699418432E-02  0.96002203511E-02 -0.19096442951E-01  0.50000500000E+01  0.50000000000E+01 0.  0.
</event>
<event>
 4    1  0.5060607E-021  0.5000050E+01  0.7818608E-02  0.2136455E+00
        -11   -1    0    0    0    0  0.00000000000E+00  0.00000000000E+00  0.50000499739E+01  0.50000500000E+01  0.51100000000E-03 0.  1.
         11   -1    0    0    0    0 -0.00000000000E+00 -0.00000000000E+00 -0.50000499739E+01  0.50000500000E+01  0.51100000000E-03 0. -1.
         50    1    1    2    0    0 -0.47410360298E-02  0.15490295136E-01  0.15413495189E-01  0.50000500000E+01  0.50000000000E+01 0.  0.
         50    1    1    2    0    0  0.47410360298E-02 -0.15490295136E-01 -0.15413495189E-01  0.50000500000E+01  0.50000000000E+01 0.  0.
</event>
<event>
 4    1  0.5060607E-021  0.5000050E+01  0.7818608E-02  0.2136455E+00
        -11   -1    0    0    0    0  0.00000000000E+00  0.00000000000E+00  0.50000499739E+01  0.50000500000E+01  0.51100000000E-03 0. -1.
         11   -1    0    0    0    0 -0.00000000000E+00 -0.00000000000E+00 -0.50000499739E+01  0.50000500000E+01  0.51100000000E-03 0.  1.
         50    1    1    2    0    0  0.89715867448E-02 -0.13889149663E-01  0.15053393402E-01  0.50000500000E+01  0.50000000000E+01 0.  0.
         50    1    1    2    0    0 -0.89715867448E-02  0.13889149663E-01 -0.15053393402E-01  0.50000500000E+01  0.50000000000E+01 0.  0.
</event>
<event>
 4    1  0.5060607E-021  0.5000050E+01  0.7818608E-02  0.2136455E+00
        -11   -1    0    0    0    0  0.00000000000E+00  0.00000000000E+00  0.50000499739E+01  0.50000500000E+01  0.51100000000E-03 0.  1.
         11   -1    0    0    0    0 -0.00000000000E+00 -0.00000000000E+00 -0.50000499739E+01  0.50000500000E+01  0.51100000000E-03 0. -1.
         50    1    1    2    0    0  0.41497928633E-02  0.13187982543E-01  0.17574380092E-01  0.50000500000E+01  0.50000000000E+01 0.  1.
         50    1    1    2    0    0 -0.41497928633E-02 -0.13187982543E-01 -0.17574380092E-01  0.50000500000E+01  0.50000000000E+01 0. -1.
</event>
<event>
 4    1  0.5060607E-021  0.5000050E+01  0.7818608E-02  0.2136455E+00
        -11   -1    0    0    0    0  0.00000000000E+00  0.00000000000E+00  0.50000499739E+01  0.50000500000E+01  0.51100000000E-03 0. -1.
         11   -1    0    0    0    0 -0.00000000000E+00 -0.00000000000E+00 -0.50000499739E+01  0.50000500000E+01  0.51100000000E-03 0.  1.
         50    1    1    2    0    0  0.13423409656E-01  0.12476375576E-01  0.12812284171E-01  0.50000500000E+01  0.50000000000E+01 0. -1.
         50    1    1    2    0    0 -0.13423409656E-01 -0.12476375576E-01 -0.12812284171E-01  0.50000500000E+01  0.50000000000E+01 0. -1.
</event>
<event>
 4    1  0.5060607E-021  0.5000050E+01  0.7818608E-02  0.2136455E+00
        -11   -1    0    0    0    0  0.00000000000E+00  0.00000000000E+00  0.50000499739E+01  0.50000500000E+01  0.51100000000E-03 0. -1.
         11   -1    0    0    0    0 -0.00000000000E+00 -0.00000000000E+00 -0.50000499739E+01  0.50000500000E+01  0.51100000000E-03 0.  1.
         50    1    1    2    0    0 -0.21085047579E-02 -0.17847606095E-01 -0.13304873706E-01  0.50000500000E+01  0.50000000000E+01 0.  0.
         50    1    1    2    0    0  0.21085047579E-02  0.17847606095E-01  0.13304873706E-01  0.50000500000E+01  0.50000000000E+01 0.  1.
</event>
<event>
 4    1  0.5060607E-021  0.5000050E+01  0.7818608E-02  0.2136455E+00
        -11   -1    0    0    0    0  0.00000000000E+00  0.00000000000E+00  0.50000499739E+01  0.50000500000E+01  0.51100000000E-03 0.  1.
         11   -1    0    0    0    0 -0.00000000000E+00 -0.00000000000E+00 -0.50000499739E+01  0.50000500000E+01  0.51100000000E-03 0. -1.
         50    1    1    2    0    0 -0.19639837359E-01  0.10600299092E-01  0.13830935220E-02  0.50000500000E+01  0.50000000000E+01 0.  1.
         50    1    1    2    0    0  0.19639837359E-01 -0.10600299092E-01 -0.13830935220E-02  0.50000500000E+01  0.50000000000E+01 0. -1.
</event>
<event>
 4    1  0.5060607E-021  0.5000050E+01  0.7818608E-02  0.2136455E+00
        -11   -1    0    0    0    0  0.00000000000E+00  0.00000000000E+00  0.50000499739E+01  0.50000500000E+01  0.51100000000E-03 0. -1.
         11   -1    0    0    0    0 -0.00000000000E+00 -0.00000000000E+00 -0.50000499739E+01  0.50000500000E+01  0.51100000000E-03 0.  1.
         50    1    1    2    0    0  0.16724206476E-01  0.11352124198E-01 -0.95620444433E-02  0.50000500000E+01  0.50000000000E+01 0.  1.
         50    1    1    2    0    0 -0.16724206476E-01 -0.11352124198E-01  0.95620444433E-02  0.50000500000E+01  0.50000000000E+01 0. -1.
</event>
<event>
 4    1  0.5060607E-021  0.5000050E+01  0.7818608E-02  0.2136455E+00
        -11   -1    0    0    0    0  0.00000000000E+00  0.00000000000E+00  0.50000499739E+01  0.50000500000E+01  0.51100000000E-03 0.  1.
         11   -1    0    0    0    0 -0.00000000000E+00 -0.00000000000E+00 -0.50000499739E+01  0.50000500000E+01  0.51100000000E-03 0. -1.
         50    1    1    2    0    0 -0.99736994855E-02  0.19685954957E-01  0.36043024292E-02  0.50000500000E+01  0.50000000000E+01 0.  1.
         50    1    1    2    0    0  0.99736994855E-02 -0.19685954957E-01 -0.36043024292E-02  0.50000500000E+01  0.50000000000E+01 0. -1.
</event>
<event>
 4    1  0.5060607E-021  0.5000050E+01  0.7818608E-02  0.2136455E+00
        -11   -1    0    0    0    0  0.00000000000E+00  0.00000000000E+00  0.50000499739E+01  0.50000500000E+01  0.51100000000E-03 0.  1.
         11   -1    0    0    0    0 -0.00000000000E+00 -0.00000000000E+00 -0.50000499739E+01  0.50000500000E+01  0.51100000000E-03 0. -1.
         50    1    1    2    0    0  0.15863237541E-01  0.13910108382E-01 -0.74073665695E-02  0.50000500000E+01  0.50000000000E+01 0. -1.
         50    1    1    2    0    0 -0.15863237541E-01 -0.13910108382E-01  0.74073665695E-02  0.50000500000E+01  0.50000000000E+01 0.  0.
</event>
<event>
 4    1  0.5060607E-021  0.5000050E+01  0.7818608E-02  0.2136455E+00
        -11   -1    0    0    0    0  0.00000000000E+00  0.00000000000E+00  0.50000499739E+01  0.50000500000E+01  0.51100000000E-03 0. -1.
         11   -1    0    0    0    0 -0.00000000000E+00 -0.00000000000E+00 -0.50000499739E+01  0.50000500000E+01  0.51100000000E-03 0.  1.
         50    1    1    2    0    0  0.12414911271E-01  0.54060050329E-02  0.17794594340E-01  0.50000500000E+01  0.50000000000E+01 0.  0.
         50    1    1    2    0    0 -0.12414911271E-01 -0.54060050329E-02 -0.17794594340E-01  0.50000500000E+01  0.50000000000E+01 0.  0.
</event>
<event>
 4    1  0.5060607E-021  0.5000050E+01  0.7818608E-02  0.2136455E+00
        -11   -1    0    0    0    0  0.00000000000E+00  0.00000000000E+00  0.50000499739E+01  0.50000500000E+01  0.51100000000E-03 0.  1.
         11   -1    0    0    0    0 -0.00000000000E+00 -0.00000000000E+00 -0.50000499739E+01  0.50000500000E+01  0.51100000000E-03 0. -1.
         50    1    1    2    0    0 -0.18917383747E-01  0.94127990198E-02 -0.73167142072E-02  0.50000500000E+01  0.50000000000E+01 0.  0.
         50    1    1    2    0    0  0.18917383747E-01 -0.94127990198E-02  0.73167142072E-02  0.50000500000E+01  0.50000000000E+01 0. -1.
</event>
<event>
 4    1  0.5060607E-021  0.5000050E+01  0.7818608E-02  0.2136455E+00
        -11   -1    0    0    0    0  0.00000000000E+00  0.00000000000E+00  0.50000499739E+01  0.50000500000E+01  0.51100000000E-03 0.  1.
         11   -1    0    0    0    0 -0.00000000000E+00 -0.00000000000E+00 -0.50000499739E+01  0.50000500000E+01  0.51100000000E-03 0. -1.
         50    1    1    2    0    0  0.19465545617E-01 -0.58018351599E-02 -0.93506011896E-02  0.50000500000E+01  0.50000000000E+01 0.  0.
         50    1    1    2    0    0 -0.19465545617E-01  0.58018351599E-02  0.93506011896E-02  0.50000500000E+01  0.50000000000E+01 0. -1.
</event>
<event>
 4    1  0.5060607E-021  0.5000050E+01  0.7818608E-02  0.2136455E+00
        -11   -1    0    0    0    0  0.00000000000E+00  0.00000000000E+00  0.50000499739E+01  0.50000500000E+01  0.51100000000E-03 0.  1.
         11   -1    0    0    0    0 -0.00000000000E+00 -0.00000000000E+00 -0.50000499739E+01  0.50000500000E+01  0.51100000000E-03 0. -1.
         50    1    1    2    0    0  0.13097572861E-01 -0.16545968262E-01  0.73950672350E-02  0.50000500000E+01  0.50000000000E+01 0. -1.
         50    1    1    2    0    0 -0.13097572861E-01  0.16545968262E-01 -0.73950672350E-02  0.50000500000E+01  0.50000000000E+01 0. -1.
</event>
<event>
 4    1  0.5060607E-021  0.5000050E+01  0.7818608E-02  0.2136455E+00
        -11   -1    0    0    0    0  0.00000000000E+00  0.00000000000E+00  0.50000499739E+01  0.50000500000E+01  0.51100000000E-03 0. -1.
         11   -1    0    0    0    0 -0.00000000000E+00 -0.00000000000E+00 -0.50000499739E+01  0.50000500000E+01  0.51100000000E-03 0.  1.
         50    1    1    2    0    0  0.72615833070E-03 -0.83160041836E-02  0.20744138172E-01  0.50000500000E+01  0.50000000000E+01 0.  0.
         50    1    1    2    0    0 -0.72615833070E-03  0.83160041836E-02 -0.20744138172E-01  0.50000500000E+01  0.50000000000E+01 0.  1.
</event>
<event>
 4    1  0.5060607E-021  0.5000050E+01  0.7818608E-02  0.2136455E+00
        -11   -1    0    0    0    0  0.00000000000E+00  0.00000000000E+00  0.50000499739E+01  0.50000500000E+01  0.51100000000E-03 0.  1.
         11   -1    0    0    0    0 -0.00000000000E+00 -0.00000000000E+00 -0.50000499739E+01  0.50000500000E+01  0.51100000000E-03 0. -1.
         50    1    1    2    0    0  0.15611025657E-01 -0.11134282101E-01  0.11503309960E-01  0.50000500000E+01  0.50000000000E+01 0.  0.
         50    1    1    2    0    0 -0.15611025657E-01  0.11134282101E-01 -0.11503309960E-01  0.50000500000E+01  0.50000000000E+01 0.  0.
</event>
<event>
 4    1  0.5060607E-021  0.5000050E+01  0.7818608E-02  0.2136455E+00
        -11   -1    0    0    0    0  0.00000000000E+00  0.00000000000E+00  0.50000499739E+01  0.50000500000E+01  0.51100000000E-03 0. -1.
         11   -1    0    0    0    0 -0.00000000000E+00 -0.00000000000E+00 -0.50000499739E+01  0.50000500000E+01  0.51100000000E-03 0.  1.
         50    1    1    2    0    0  0.32051113474E-02  0.10370731923E-01  0.19549365223E-01  0.50000500000E+01  0.50000000000E+01 0. -1.
         50    1    1    2    0    0 -0.32051113474E-02 -0.10370731923E-01 -0.19549365223E-01  0.50000500000E+01  0.50000000000E+01 0.  0.
</event>
<event>
 4    1  0.5060607E-021  0.5000050E+01  0.7818608E-02  0.2136455E+00
        -11   -1    0    0    0    0  0.00000000000E+00  0.00000000000E+00  0.50000499739E+01  0.50000500000E+01  0.51100000000E-03 0. -1.
         11   -1    0    0    0    0 -0.00000000000E+00 -0.00000000000E+00 -0.50000499739E+01  0.50000500000E+01  0.51100000000E-03 0.  1.
         50    1    1    2    0    0  0.18549780398E-01 -0.11636618065E-01 -0.45273907715E-02  0.50000500000E+01  0.50000000000E+01 0. -1.
         50    1    1    2    0    0 -0.18549780398E-01  0.11636618065E-01  0.45273907715E-02  0.50000500000E+01  0.50000000000E+01 0.  0.
</event>
<event>
 4    1  0.5060607E-021  0.5000050E+01  0.7818608E-02  0.2136455E+00
        -11   -1    0    0    0    0  0.00000000000E+00  0.00000000000E+00  0.50000499739E+01  0.50000500000E+01  0.51100000000E-03 0.  1.
         11   -1    0    0    0    0 -0.00000000000E+00 -0.00000000000E+00 -0.50000499739E+01  0.50000500000E+01  0.51100000000E-03 0. -1.
         50    1    1    2    0    0 -0.14630546242E-01 -0.73060744419E-02  0.15250275175E-01  0.50000500000E+01  0.50000000000E+01 0.  1.
         50    1    1    2    0    0  0.14630546242E-01  0.73060744419E-02 -0.15250275175E-01  0.50000500000E+01  0.50000000000E+01 0. -1.
</event>
<event>
 4    1  0.5060607E-021  0.5000050E+01  0.7818608E-02  0.2136455E+00
        -11   -1    0    0    0    0  0.00000000000E+00  0.00000000000E+00  0.50000499739E+01  0.50000500000E+01  0.51100000000E-03 0.  1.
         11   -1    0    0    0    0 -0.00000000000E+00 -0.00000000000E+00 -0.50000499739E+01  0.50000500000E+01  0.51100000000E-03 0. -1.
         50    1    1    2    0    0  0.13977999468E-01 -0.14772023878E-01 -0.92954473491E-02  0.50000500000E+01  0.50000000000E+01 0.  0.
         50    1    1    2    0    0 -0.13977999468E-01  0.14772023878E-01  0.92954473491E-02  0.50000500000E+01  0.50000000000E+01 0. -1.
</event>
<event>
 4    1  0.5060607E-021  0.5000050E+01  0.7818608E-02  0.2136455E+00
        -11   -1    0    0    0    0  0.00000000000E+00  0.00000000000E+00  0.50000499739E+01  0.50000500000E+01  0.51100000000E-03 0. -1.
         11   -1    0    0    0    0 -0.00000000000E+00 -0.00000000000E+00 -0.50000499739E+01  0.50000500000E+01  0.51100000000E-03 0.  1.
         50    1    1    2    0    0  0.16895524713E-01 -0.62558431765E-02 -0.13244174977E-01  0.50000500000E+01  0.50000000000E+01 0. -1.
         50    1    1    2    0    0 -0.16895524713E-01  0.62558431765E-02  0.13244174977E-01  0.50000500000E+01  0.50000000000E+01 0.  0.
</event>
<event>
 4    1  0.5060607E-021  0.5000050E+01  0.7818608E-02  0.2136455E+00
        -11   -1    0    0    0    0  0.00000000000E+00  0.00000000000E+00  0.50000499739E+01  0.50000500000E+01  0.51100000000E-03 0.  1.
         11   -1    0    0    0    0 -0.00000000000E+00 -0.00000000000E+00 -0.50000499739E+01  0.50000500000E+01  0.51100000000E-03 0. -1.
         50    1    1    2    0    0  0.10127410509E-01  0.17463916561E-01  0.96150753889E-02  0.50000500000E+01  0.50000000000E+01 0.  0.
         50    1    1    2    0    0 -0.10127410509E-01 -0.17463916561E-01 -0.96150753889E-02  0.50000500000E+01  0.50000000000E+01 0.  0.
</event>
<event>
 4    1  0.5060607E-021  0.5000050E+01  0.7818608E-02  0.2136455E+00
        -11   -1    0    0    0    0  0.00000000000E+00  0.00000000000E+00  0.50000499739E+01  0.50000500000E+01  0.51100000000E-03 0. -1.
         11   -1    0    0    0    0 -0.00000000000E+00 -0.00000000000E+00 -0.50000499739E+01  0.50000500000E+01  0.51100000000E-03 0.  1.
         50    1    1    2    0    0  0.16707240386E-01 -0.14800271222E-01 -0.13500334938E-02  0.50000500000E+01  0.50000000000E+01 0.  0.
         50    1    1    2    0    0 -0.16707240386E-01  0.14800271222E-01  0.13500334938E-02  0.50000500000E+01  0.50000000000E+01 0. -1.
</event>
<event>
 4    1  0.5060607E-021  0.5000050E+01  0.7818608E-02  0.2136455E+00
        -11   -1    0    0    0    0  0.00000000000E+00  0.00000000000E+00  0.50000499739E+01  0.50000500000E+01  0.51100000000E-03 0. -1.
         11   -1    0    0    0    0 -0.00000000000E+00 -0.00000000000E+00 -0.50000499739E+01  0.50000500000E+01  0.51100000000E-03 0.  1.
         50    1    1    2    0    0 -0.82673096236E-02 -0.79933627554E-02  0.19177075988E-01  0.50000500000E+01  0.50000000000E+01 0.  0.
         50    1    1    2    0    0  0.82673096236E-02  0.79933627554E-02 -0.19177075988E-01  0.50000500000E+01  0.50000000000E+01 0.  1.
</event>
<event>
 4    1  0.5060607E-021  0.5000050E+01  0.7818608E-02  0.2136455E+00
        -11   -1    0    0    0    0  0.00000000000E+00  0.00000000000E+00  0.50000499739E+01  0.50000500000E+01  0.51100000000E-03 0. -1.
         11   -1    0    0    0    0 -0.00000000000E+00 -0.00000000000E+00 -0.50000499739E+01  0.50000500000E+01  0.51100000000E-03 0.  1.
         50    1    1    2    0    0 -0.89253853272E-02  0.70149680203E-02  0.19264740342E-01  0.50000500000E+01  0.50000000000E+01 0. -1.
         50    1    1    2    0    0  0.89253853272E-02 -0.70149680203E-02 -0.19264740342E-01  0.50000500000E+01  0.50000000000E+01 0.  0.
</event>
<event>
 4    1  0.5060607E-021  0.5000050E+01  0.7818608E-02  0.2136455E+00
        -11   -1    0    0    0    0  0.00000000000E+00  0.00000000000E+00  0.50000499739E+01  0.50000500000E+01  0.51100000000E-03 0. -1.
         11   -1    0    0    0    0 -0.00000000000E+00 -0.00000000000E+00 -0.50000499739E+01  0.50000500000E+01  0.51100000000E-03 0.  1.
         50    1    1    2    0    0 -0.46953473022E-02  0.16820248958E-01  0.13965508895E-01  0.50000500000E+01  0.50000000000E+01 0.  0.
         50    1    1    2    0    0  0.46953473022E-02 -0.16820248958E-01 -0.13965508895E-01  0.50000500000E+01  0.50000000000E+01 0.  0.
</event>
<event>
 4    1  0.5060607E-021  0.5000050E+01  0.7818608E-02  0.2136455E+00
        -11   -1    0    0    0    0  0.00000000000E+00  0.00000000000E+00  0.50000499739E+01  0.50000500000E+01  0.51100000000E-03 0.  1.
         11   -1    0    0    0    0 -0.00000000000E+00 -0.00000000000E+00 -0.50000499739E+01  0.50000500000E+01  0.51100000000E-03 0. -1.
         50    1    1    2    0    0 -0.13494446117E-03  0.75439034793E-03  0.22347599092E-01  0.50000500000E+01  0.50000000000E+01 0.  0.
         50    1    1    2    0    0  0.13494446117E-03 -0.75439034793E-03 -0.22347599092E-01  0.50000500000E+01  0.50000000000E+01 0. -1.
</event>
<event>
 4    1  0.5060607E-021  0.5000050E+01  0.7818608E-02  0.2136455E+00
        -11   -1    0    0    0    0  0.00000000000E+00  0.00000000000E+00  0.50000499739E+01  0.50000500000E+01  0.51100000000E-03 0. -1.
         11   -1    0    0    0    0 -0.00000000000E+00 -0.00000000000E+00 -0.50000499739E+01  0.50000500000E+01  0.51100000000E-03 0.  1.
         50    1    1    2    0    0  0.55388699494E-02 -0.85582575016E-05 -0.21663871917E-01  0.50000500000E+01  0.50000000000E+01 0.  1.
         50    1    1    2    0    0 -0.55388699494E-02  0.85582575016E-05  0.21663871917E-01  0.50000500000E+01  0.50000000000E+01 0.  0.
</event>
<event>
 4    1  0.5060607E-021  0.5000050E+01  0.7818608E-02  0.2136455E+00
        -11   -1    0    0    0    0  0.00000000000E+00  0.00000000000E+00  0.50000499739E+01  0.50000500000E+01  0.51100000000E-03 0.  1.
         11   -1    0    0    0    0 -0.00000000000E+00 -0.00000000000E+00 -0.50000499739E+01  0.50000500000E+01  0.51100000000E-03 0. -1.
         50    1    1    2    0    0  0.82259898684E-02 -0.15515003258E-01  0.13842697158E-01  0.50000500000E+01  0.50000000000E+01 0. -1.
         50    1    1    2    0    0 -0.82259898684E-02  0.15515003258E-01 -0.13842697158E-01  0.50000500000E+01  0.50000000000E+01 0.  0.
</event>
<event>
 4    1  0.5060607E-021  0.5000050E+01  0.7818608E-02  0.2136455E+00
        -11   -1    0    0    0    0  0.00000000000E+00  0.00000000000E+00  0.50000499739E+01  0.50000500000E+01  0.51100000000E-03 0.  1.
         11   -1    0    0    0    0 -0.00000000000E+00 -0.00000000000E+00 -0.50000499739E+01  0.50000500000E+01  0.51100000000E-03 0. -1.
         50    1    1    2    0    0  0.10683528546E-01 -0.14984880765E-01  0.12701104923E-01  0.50000500000E+01  0.50000000000E+01 0.  1.
         50    1    1    2    0    0 -0.10683528546E-01  0.14984880765E-01 -0.12701104923E-01  0.50000500000E+01  0.50000000000E+01 0. -1.
</event>
<event>
 4    1  0.5060607E-021  0.5000050E+01  0.7818608E-02  0.2136455E+00
        -11   -1    0    0    0    0  0.00000000000E+00  0.00000000000E+00  0.50000499739E+01  0.50000500000E+01  0.51100000000E-03 0. -1.
         11   -1    0    0    0    0 -0.00000000000E+00 -0.00000000000E+00 -0.50000499739E+01  0.50000500000E+01  0.51100000000E-03 0.  1.
         50    1    1    2    0    0 -0.93355404329E-03 -0.21997727753E-01 -0.39026850456E-02  0.50000500000E+01  0.50000000000E+01 0. -1.
         50    1    1    2    0    0  0.93355404329E-03  0.21997727753E-01  0.39026850456E-02  0.50000500000E+01  0.50000000000E+01 0.  0.
</event>
<event>
 4    1  0.5060607E-021  0.5000050E+01  0.7818608E-02  0.2136455E+00
        -11   -1    0    0    0    0  0.00000000000E+00  0.00000000000E+00  0.50000499739E+01  0.50000500000E+01  0.51100000000E-03 0.  1.
         11   -1    0    0    0    0 -0.00000000000E+00 -0.00000000000E+00 -0.50000499739E+01  0.50000500000E+01  0.51100000000E-03 0. -1.
         50    1    1    2    0    0 -0.66667894495E-02 -0.18224307408E-01 -0.11109952203E-01  0.50000500000E+01  0.50000000000E+01 0.  0.
         50    1    1    2    0    0  0.66667894495E-02  0.18224307408E-01  0.11109952203E-01  0.50000500000E+01  0.50000000000E+01 0.  0.
</event>
<event>
 4    1  0.5060607E-021  0.5000050E+01  0.7818608E-02  0.2136455E+00
        -11   -1    0    0    0    0  0.00000000000E+00  0.00000000000E+00  0.50000499739E+01  0.50000500000E+01  0.51100000000E-03 0.  1.
         11   -1    0    0    0    0 -0.00000000000E+00 -0.00000000000E+00 -0.50000499739E+01  0.50000500000E+01  0.51100000000E-03 0. -1.
         50    1    1    2    0    0 -0.11376285198E-01  0.97104084631E-03 -0.19226016612E-01  0.50000500000E+01  0.50000000000E+01 0.  0.
         50    1    1    2    0    0  0.11376285198E-01 -0.97104084631E-03  0.19226016612E-01  0.50000500000E+01  0.50000000000E+01 0.  1.
</event>
<event>
 4    1  0.5060607E-021  0.5000050E+01  0.7818608E-02  0.2136455E+00
        -11   -1    0    0    0    0  0.00000000000E+00  0.00000000000E+00  0.50000499739E+01  0.50000500000E+01  0.51100000000E-03 0. -1.
         11   -1    0    0    0    0 -0.00000000000E+00 -0.00000000000E+00 -0.50000499739E+01  0.50000500000E+01  0.51100000000E-03 0.  1.
         50    1    1    2    0    0 -0.49885434555E-02 -0.21218407917E-01 -0.49895991470E-02  0.50000500000E+01  0.50000000000E+01 0.  0.
         50    1    1    2    0    0  0.49885434555E-02  0.21218407917E-01  0.49895991470E-02  0.50000500000E+01  0.50000000000E+01 0.  0.
</event>
<event>
 4    1  0.5060607E-021  0.5000050E+01  0.7818608E-02  0.2136455E+00
        -11   -1    0    0    0    0  0.00000000000E+00  0.00000000000E+00  0.50000499739E+01  0.50000500000E+01  0.51100000000E-03 0. -1.
         11   -1    0    0    0    0 -0.00000000000E+00 -0.00000000000E+00 -0.50000499739E+01  0.50000500000E+01  0.51100000000E-03 0.  1.
         50    1    1    2    0    0 -0.11593802602E-01  0.66359224063E-05  0.19120308502E-01  0.50000500000E+01  0.50000000000E+01 0. -1.
         50    1    1    2    0    0  0.11593802602E-01 -0.66359224063E-05 -0.19120308502E-01  0.50000500000E+01  0.50000000000E+01 0.  1.
</event>
<event>
 4    1  0.5060607E-021  0.5000050E+01  0.7818608E-02  0.2136455E+00
        -11   -1    0    0    0    0  0.00000000000E+00  0.00000000000E+00  0.50000499739E+01  0.50000500000E+01  0.51100000000E-03 0. -1.
         11   -1    0    0    0    0 -0.00000000000E+00 -0.00000000000E+00 -0.50000499739E+01  0.50000500000E+01  0.51100000000E-03 0.  1.
         50    1    1    2    0    0 -0.21822268539E-01  0.34460622452E-02 -0.34519198720E-02  0.50000500000E+01  0.50000000000E+01 0.  1.
         50    1    1    2    0    0  0.21822268539E-01 -0.34460622452E-02  0.34519198720E-02  0.50000500000E+01  0.50000000000E+01 0. -1.
</event>
<event>
 4    1  0.5060607E-021  0.5000050E+01  0.7818608E-02  0.2136455E+00
        -11   -1    0    0    0    0  0.00000000000E+00  0.00000000000E+00  0.50000499739E+01  0.50000500000E+01  0.51100000000E-03 0.  1.
         11   -1    0    0    0    0 -0.00000000000E+00 -0.00000000000E+00 -0.50000499739E+01  0.50000500000E+01  0.51100000000E-03 0. -1.
         50    1    1    2    0    0  0.28244330244E-02  0.15905675081E-01 -0.15460743135E-01  0.50000500000E+01  0.50000000000E+01 0. -1.
         50    1    1    2    0    0 -0.28244330244E-02 -0.15905675081E-01  0.15460743135E-01  0.50000500000E+01  0.50000000000E+01 0.  1.
</event>
<event>
 4    1  0.5060607E-021  0.5000050E+01  0.7818608E-02  0.2136455E+00
        -11   -1    0    0    0    0  0.00000000000E+00  0.00000000000E+00  0.50000499739E+01  0.50000500000E+01  0.51100000000E-03 0. -1.
         11   -1    0    0    0    0 -0.00000000000E+00 -0.00000000000E+00 -0.50000499739E+01  0.50000500000E+01  0.51100000000E-03 0.  1.
         50    1    1    2    0    0 -0.94206425537E-02  0.69486080975E-03 -0.20267490282E-01  0.50000500000E+01  0.50000000000E+01 0.  1.
         50    1    1    2    0    0  0.94206425537E-02 -0.69486080975E-03  0.20267490282E-01  0.50000500000E+01  0.50000000000E+01 0.  0.
</event>
<event>
 4    1  0.5060607E-021  0.5000050E+01  0.7818608E-02  0.2136455E+00
        -11   -1    0    0    0    0  0.00000000000E+00  0.00000000000E+00  0.50000499739E+01  0.50000500000E+01  0.51100000000E-03 0.  1.
         11   -1    0    0    0    0 -0.00000000000E+00 -0.00000000000E+00 -0.50000499739E+01  0.50000500000E+01  0.51100000000E-03 0. -1.
         50    1    1    2    0    0 -0.10413619574E-01  0.12758500609E-01 -0.15125464938E-01  0.50000500000E+01  0.50000000000E+01 0. -1.
         50    1    1    2    0    0  0.10413619574E-01 -0.12758500609E-01  0.15125464938E-01  0.50000500000E+01  0.50000000000E+01 0. -1.
</event>
<event>
 4    1  0.5060607E-021  0.5000050E+01  0.7818608E-02  0.2136455E+00
        -11   -1    0    0    0    0  0.00000000000E+00  0.00000000000E+00  0.50000499739E+01  0.50000500000E+01  0.51100000000E-03 0.  1.
         11   -1    0    0    0    0 -0.00000000000E+00 -0.00000000000E+00 -0.50000499739E+01  0.50000500000E+01  0.51100000000E-03 0. -1.
         50    1    1    2    0    0 -0.16756011829E-01  0.19939547545E-02 -0.14671833970E-01  0.50000500000E+01  0.50000000000E+01 0.  0.
         50    1    1    2    0    0  0.16756011829E-01 -0.19939547545E-02  0.14671833970E-01  0.50000500000E+01  0.50000000000E+01 0.  0.
</event>
<event>
 4    1  0.5060607E-021  0.5000050E+01  0.7818608E-02  0.2136455E+00
        -11   -1    0    0    0    0  0.00000000000E+00  0.00000000000E+00  0.50000499739E+01  0.50000500000E+01  0.51100000000E-03 0.  1.
         11   -1    0    0    0    0 -0.00000000000E+00 -0.00000000000E+00 -0.50000499739E+01  0.50000500000E+01  0.51100000000E-03 0. -1.
         50    1    1    2    0    0 -0.33478512431E-02 -0.19318313194E-01 -0.10751612317E-01  0.50000500000E+01  0.50000000000E+01 0.  1.
         50    1    1    2    0    0  0.33478512431E-02  0.19318313194E-01  0.10751612317E-01  0.50000500000E+01  0.50000000000E+01 0.  0.
</event>
<event>
 4    1  0.5060607E-021  0.5000050E+01  0.7818608E-02  0.2136455E+00
        -11   -1    0    0    0    0  0.00000000000E+00  0.00000000000E+00  0.50000499739E+01  0.50000500000E+01  0.51100000000E-03 0.  1.
         11   -1    0    0    0    0 -0.00000000000E+00 -0.00000000000E+00 -0.50000499739E+01  0.50000500000E+01  0.51100000000E-03 0. -1.
         50    1    1    2    0    0  0.15949451750E-02 -0.10061310951E-01  0.19905493509E-01  0.50000500000E+01  0.50000000000E+01 0.  0.
         50    1    1    2    0    0 -0.15949451750E-02  0.10061310951E-01 -0.19905493509E-01  0.50000500000E+01  0.50000000000E+01 0. -1.
</event>
<event>
 4    1  0.5060607E-021  0.5000050E+01  0.7818608E-02  0.2136455E+00
        -11   -1    0    0    0    0  0.00000000000E+00  0.00000000000E+00  0.50000499739E+01  0.50000500000E+01  0.51100000000E-03 0.  1.
         11   -1    0    0    0    0 -0.00000000000E+00 -0.00000000000E+00 -0.50000499739E+01  0.50000500000E+01  0.51100000000E-03 0. -1.
         50    1    1    2    0    0  0.46274288981E-02 -0.15480165366E-01  0.15458133200E-01  0.50000500000E+01  0.50000000000E+01 0.  0.
         50    1    1    2    0    0 -0.46274288981E-02  0.15480165366E-01 -0.15458133200E-01  0.50000500000E+01  0.50000000000E+01 0.  0.
</event>
<event>
 4    1  0.5060607E-021  0.5000050E+01  0.7818608E-02  0.2136455E+00
        -11   -1    0    0    0    0  0.00000000000E+00  0.00000000000E+00  0.50000499739E+01  0.50000500000E+01  0.51100000000E-03 0. -1.
         11   -1    0    0    0    0 -0.00000000000E+00 -0.00000000000E+00 -0.50000499739E+01  0.50000500000E+01  0.51100000000E-03 0.  1.
         50    1    1    2    0    0 -0.20199796549E-01 -0.95901327641E-02 -0.85399131807E-05  0.50000500000E+01  0.50000000000E+01 0. -1.
         50    1    1    2    0    0  0.20199796549E-01  0.95901327641E-02  0.85399131811E-05  0.50000500000E+01  0.50000000000E+01 0.  1.
</event>
<event>
 4    1  0.5060607E-021  0.5000050E+01  0.7818608E-02  0.2136455E+00
        -11   -1    0    0    0    0  0.00000000000E+00  0.00000000000E+00  0.50000499739E+01  0.50000500000E+01  0.51100000000E-03 0.  1.
         11   -1    0    0    0    0 -0.00000000000E+00 -0.00000000000E+00 -0.50000499739E+01  0.50000500000E+01  0.51100000000E-03 0. -1.
         50    1    1    2    0    0 -0.15295666089E-01  0.42200589645E-02  0.15755513360E-01  0.50000500000E+01  0.50000000000E+01 0.  1.
         50    1    1    2    0    0  0.15295666089E-01 -0.42200589645E-02 -0.15755513360E-01  0.50000500000E+01  0.50000000000E+01 0.  0.
</event>
<event>
 4    1  0.5060607E-021  0.5000050E+01  0.7818608E-02  0.2136455E+00
        -11   -1    0    0    0    0  0.00000000000E+00  0.00000000000E+00  0.50000499739E+01  0.50000500000E+01  0.51100000000E-03 0. -1.
         11   -1    0    0    0    0 -0.00000000000E+00 -0.00000000000E+00 -0.50000499739E+01  0.50000500000E+01  0.51100000000E-03 0.  1.
         50    1    1    2    0    0  0.13228378189E-01 -0.17310320123E-01  0.50364002734E-02  0.50000500000E+01  0.50000000000E+01 0. -1.
         50    1    1    2    0    0 -0.13228378189E-01  0.17310320123E-01 -0.50364002734E-02  0.50000500000E+01  0.50000000000E+01 0.  1.
</event>
<event>
 4    1  0.5060607E-021  0.5000050E+01  0.7818608E-02  0.2136455E+00
        -11   -1    0    0    0    0  0.00000000000E+00  0.00000000000E+00  0.50000499739E+01  0.50000500000E+01  0.51100000000E-03 0.  1.
         11   -1    0    0    0    0 -0.00000000000E+00 -0.00000000000E+00 -0.50000499739E+01  0.50000500000E+01  0.51100000000E-03 0. -1.
         50    1    1    2    0    0 -0.13814089530E-01  0.22211728422E-04 -0.17583314167E-01  0.50000500000E+01  0.50000000000E+01 0. -1.
         50    1    1    2    0    0  0.13814089530E-01 -0.22211728422E-04  0.17583314167E-01  0.50000500000E+01  0.50000000000E+01 0.  1.
</event>
<event>
 4    1  0.5060607E-021  0.5000050E+01  0.7818608E-02  0.2136455E+00
        -11   -1    0    0    0    0  0.00000000000E+00  0.00000000000E+00  0.50000499739E+01  0.50000500000E+01  0.51100000000E-03 0.  1.
         11   -1    0    0    0    0 -0.00000000000E+00 -0.00000000000E+00 -0.50000499739E+01  0.50000500000E+01  0.51100000000E-03 0. -1.
         50    1    1    2    0    0 -0.64144649776E-03  0.22212739649E-01 -0.24870150089E-02  0.50000500000E+01  0.50000000000E+01 0. -1.
         50    1    1    2    0    0  0.64144649776E-03 -0.22212739649E-01  0.24870150089E-02  0.50000500000E+01  0.50000000000E+01 0.  1.
</event>
<event>
 4    1  0.5060607E-021  0.5000050E+01  0.7818608E-02  0.2136455E+00
        -11   -1    0    0    0    0  0.00000000000E+00  0.00000000000E+00  0.50000499739E+01  0.50000500000E+01  0.51100000000E-03 0.  1.
         11   -1    0    0    0    0 -0.00000000000E+00 -0.00000000000E+00 -0.50000499739E+01  0.50000500000E+01  0.51100000000E-03 0. -1.
         50    1    1    2    0    0  0.78298027984E-02  0.17784916044E-01 -0.11063157300E-01  0.50000500000E+01  0.50000000000E+01 0.  0.
         50    1    1    2    0    0 -0.78298027984E-02 -0.17784916044E-01  0.11063157300E-01  0.50000500000E+01  0.50000000000E+01 0.  0.
</event>
<event>
 4    1  0.5060607E-021  0.5000050E+01  0.7818608E-02  0.2136455E+00
        -11   -1    0    0    0    0  0.00000000000E+00  0.00000000000E+00  0.50000499739E+01  0.50000500000E+01  0.51100000000E-03 0. -1.
         11   -1    0    0    0    0 -0.00000000000E+00 -0.00000000000E+00 -0.50000499739E+01  0.50000500000E+01  0.51100000000E-03 0.  1.
         50    1    1    2    0    0  0.11430896839E-01  0.13263589896E-01 -0.13907346279E-01  0.50000500000E+01  0.50000000000E+01 0.  1.
         50    1    1    2    0    0 -0.11430896839E-01 -0.13263589896E-01  0.13907346279E-01  0.50000500000E+01  0.50000000000E+01 0. -1.
</event>
<event>
 4    1  0.5060607E-021  0.5000050E+01  0.7818608E-02  0.2136455E+00
        -11   -1    0    0    0    0  0.00000000000E+00  0.00000000000E+00  0.50000499739E+01  0.50000500000E+01  0.51100000000E-03 0. -1.
         11   -1    0    0    0    0 -0.00000000000E+00 -0.00000000000E+00 -0.50000499739E+01  0.50000500000E+01  0.51100000000E-03 0.  1.
         50    1    1    2    0    0 -0.11801826820E-01 -0.15428235547E-01  0.11076503583E-01  0.50000500000E+01  0.50000000000E+01 0. -1.
         50    1    1    2    0    0  0.11801826820E-01  0.15428235547E-01 -0.11076503583E-01  0.50000500000E+01  0.50000000000E+01 0.  1.
</event>
<event>
 4    1  0.5060607E-021  0.5000050E+01  0.7818608E-02  0.2136455E+00
        -11   -1    0    0    0    0  0.00000000000E+00  0.00000000000E+00  0.50000499739E+01  0.50000500000E+01  0.51100000000E-03 0. -1.
         11   -1    0    0    0    0 -0.00000000000E+00 -0.00000000000E+00 -0.50000499739E+01  0.50000500000E+01  0.51100000000E-03 0.  1.
         50    1    1    2    0    0  0.86004446621E-02 -0.16874599211E-01  0.11886242177E-01  0.50000500000E+01  0.50000000000E+01 0.  1.
         50    1    1    2    0    0 -0.86004446621E-02  0.16874599211E-01 -0.11886242177E-01  0.50000500000E+01  0.50000000000E+01 0. -1.
</event>
<event>
 4    1  0.5060607E-021  0.5000050E+01  0.7818608E-02  0.2136455E+00
        -11   -1    0    0    0    0  0.00000000000E+00  0.00000000000E+00  0.50000499739E+01  0.50000500000E+01  0.51100000000E-03 0. -1.
         11   -1    0    0    0    0 -0.00000000000E+00 -0.00000000000E+00 -0.50000499739E+01  0.50000500000E+01  0.51100000000E-03 0.  1.
         50    1    1    2    0    0 -0.20341657239E-01 -0.92560509618E-02 -0.73824206478E-03  0.50000500000E+01  0.50000000000E+01 0.  0.
         50    1    1    2    0    0  0.20341657239E-01  0.92560509618E-02  0.73824206478E-03  0.50000500000E+01  0.50000000000E+01 0.  1.
</event>
<event>
 4    1  0.5060607E-021  0.5000050E+01  0.7818608E-02  0.2136455E+00
        -11   -1    0    0    0    0  0.00000000000E+00  0.00000000000E+00  0.50000499739E+01  0.50000500000E+01  0.51100000000E-03 0. -1.
         11   -1    0    0    0    0 -0.00000000000E+00 -0.00000000000E+00 -0.50000499739E+01  0.50000500000E+01  0.51100000000E-03 0.  1.
         50    1    1    2    0    0  0.93242541195E-02  0.19963513587E-01 -0.38103687952E-02  0.50000500000E+01  0.50000000000E+01 0.  1.
         50    1    1    2    0    0 -0.93242541195E-02 -0.19963513587E-01  0.38103687952E-02  0.50000500000E+01  0.50000000000E+01 0. -1.
</event>
<event>
 4    1  0.5060607E-021  0.5000050E+01  0.7818608E-02  0.2136455E+00
        -11   -1    0    0    0    0  0.00000000000E+00  0.00000000000E+00  0.50000499739E+01  0.50000500000E+01  0.51100000000E-03 0.  1.
         11   -1    0    0    0    0 -0.00000000000E+00 -0.00000000000E+00 -0.50000499739E+01  0.50000500000E+01  0.51100000000E-03 0. -1.
         50    1    1    2    0    0 -0.19778441944E-01 -0.65356063827E-02 -0.81302880322E-02  0.50000500000E+01  0.50000000000E+01 0. -1.
         50    1    1    2    0    0  0.19778441944E-01  0.65356063827E-02  0.81302880322E-02  0.50000500000E+01  0.50000000000E+01 0. -1.
</event>
<event>
 4    1  0.5060607E-021  0.5000050E+01  0.7818608E-02  0.2136455E+00
        -11   -1    0    0    0    0  0.00000000000E+00  0.00000000000E+00  0.50000499739E+01  0.50000500000E+01  0.51100000000E-03 0. -1.
         11   -1    0    0    0    0 -0.00000000000E+00 -0.00000000000E+00 -0.50000499739E+01  0.50000500000E+01  0.51100000000E-03 0.  1.
         50    1    1    2    0    0 -0.11578645465E-01  0.18453518187E-01  0.50403507540E-02  0.50000500000E+01  0.50000000000E+01 0.  1.
         50    1    1    2    0    0  0.11578645465E-01 -0.18453518187E-01 -0.50403507540E-02  0.50000500000E+01  0.50000000000E+01 0. -1.
</event>
<event>
 4    1  0.5060607E-021  0.5000050E+01  0.7818608E-02  0.2136455E+00
        -11   -1    0    0    0    0  0.00000000000E+00  0.00000000000E+00  0.50000499739E+01  0.50000500000E+01  0.51100000000E-03 0. -1.
         11   -1    0    0    0    0 -0.00000000000E+00 -0.00000000000E+00 -0.50000499739E+01  0.50000500000E+01  0.51100000000E-03 0.  1.
         50    1    1    2    0    0  0.14917842693E-01 -0.13581301436E-01 -0.96441028961E-02  0.50000500000E+01  0.50000000000E+01 0.  1.
         50    1    1    2    0    0 -0.14917842693E-01  0.13581301436E-01  0.96441028961E-02  0.50000500000E+01  0.50000000000E+01 0.  0.
</event>
<event>
 4    1  0.5060607E-021  0.5000050E+01  0.7818608E-02  0.2136455E+00
        -11   -1    0    0    0    0  0.00000000000E+00  0.00000000000E+00  0.50000499739E+01  0.50000500000E+01  0.51100000000E-03 0.  1.
         11   -1    0    0    0    0 -0.00000000000E+00 -0.00000000000E+00 -0.50000499739E+01  0.50000500000E+01  0.51100000000E-03 0. -1.
         50    1    1    2    0    0 -0.44612047810E-02  0.12422150630E-01 -0.18049662756E-01  0.50000500000E+01  0.50000000000E+01 0. -1.
         50    1    1    2    0    0  0.44612047810E-02 -0.12422150630E-01  0.18049662756E-01  0.50000500000E+01  0.50000000000E+01 0.  1.
</event>
<event>
 4    1  0.5060607E-021  0.5000050E+01  0.7818608E-02  0.2136455E+00
        -11   -1    0    0    0    0  0.00000000000E+00  0.00000000000E+00  0.50000499739E+01  0.50000500000E+01  0.51100000000E-03 0. -1.
         11   -1    0    0    0    0 -0.00000000000E+00 -0.00000000000E+00 -0.50000499739E+01  0.50000500000E+01  0.51100000000E-03 0.  1.
         50    1    1    2    0    0 -0.17002848360E-01  0.37600206568E-02 -0.14027397916E-01  0.50000500000E+01  0.50000000000E+01 0. -1.
         50    1    1    2    0    0  0.17002848360E-01 -0.37600206568E-02  0.14027397916E-01  0.50000500000E+01  0.50000000000E+01 0. -1.
</event>
<event>
 4    1  0.5060607E-021  0.5000050E+01  0.7818608E-02  0.2136455E+00
        -11   -1    0    0    0    0  0.00000000000E+00  0.00000000000E+00  0.50000499739E+01  0.50000500000E+01  0.51100000000E-03 0. -1.
         11   -1    0    0    0    0 -0.00000000000E+00 -0.00000000000E+00 -0.50000499739E+01  0.50000500000E+01  0.51100000000E-03 0.  1.
         50    1    1    2    0    0  0.60718891433E-02 -0.33481770727E-02  0.21258512942E-01  0.50000500000E+01  0.50000000000E+01 0. -1.
         50    1    1    2    0    0 -0.60718891433E-02  0.33481770727E-02 -0.21258512942E-01  0.50000500000E+01  0.50000000000E+01 0.  0.
</event>
<event>
 4    1  0.5060607E-021  0.5000050E+01  0.7818608E-02  0.2136455E+00
        -11   -1    0    0    0    0  0.00000000000E+00  0.00000000000E+00  0.50000499739E+01  0.50000500000E+01  0.51100000000E-03 0.  1.
         11   -1    0    0    0    0 -0.00000000000E+00 -0.00000000000E+00 -0.50000499739E+01  0.50000500000E+01  0.51100000000E-03 0. -1.
         50    1    1    2    0    0  0.31993737970E-02  0.49225727367E-03 -0.22125193560E-01  0.50000500000E+01  0.50000000000E+01 0.  0.
         50    1    1    2    0    0 -0.31993737970E-02 -0.49225727367E-03  0.22125193560E-01  0.50000500000E+01  0.50000000000E+01 0.  1.
</event>
<event>
 4    1  0.5060607E-021  0.5000050E+01  0.7818608E-02  0.2136455E+00
        -11   -1    0    0    0    0  0.00000000000E+00  0.00000000000E+00  0.50000499739E+01  0.50000500000E+01  0.51100000000E-03 0. -1.
         11   -1    0    0    0    0 -0.00000000000E+00 -0.00000000000E+00 -0.50000499739E+01  0.50000500000E+01  0.51100000000E-03 0.  1.
         50    1    1    2    0    0  0.20994409422E-01 -0.12691295114E-02 -0.75912175122E-02  0.50000500000E+01  0.50000000000E+01 0.  1.
         50    1    1    2    0    0 -0.20994409422E-01  0.12691295114E-02  0.75912175122E-02  0.50000500000E+01  0.50000000000E+01 0.  1.
</event>
<event>
 4    1  0.5060607E-021  0.5000050E+01  0.7818608E-02  0.2136455E+00
        -11   -1    0    0    0    0  0.00000000000E+00  0.00000000000E+00  0.50000499739E+01  0.50000500000E+01  0.51100000000E-03 0. -1.
         11   -1    0    0    0    0 -0.00000000000E+00 -0.00000000000E+00 -0.50000499739E+01  0.50000500000E+01  0.51100000000E-03 0.  1.
         50    1    1    2    0    0 -0.12239100171E-01  0.17146459199E-01  0.74970570182E-02  0.50000500000E+01  0.50000000000E+01 0.  0.
         50    1    1    2    0    0  0.12239100171E-01 -0.17146459199E-01 -0.74970570182E-02  0.50000500000E+01  0.50000000000E+01 0.  0.
</event>
<event>
 4    1  0.5060607E-021  0.5000050E+01  0.7818608E-02  0.2136455E+00
        -11   -1    0    0    0    0  0.00000000000E+00  0.00000000000E+00  0.50000499739E+01  0.50000500000E+01  0.51100000000E-03 0. -1.
         11   -1    0    0    0    0 -0.00000000000E+00 -0.00000000000E+00 -0.50000499739E+01  0.50000500000E+01  0.51100000000E-03 0.  1.
         50    1    1    2    0    0  0.14701746983E-01 -0.14213817775E-01  0.90459117780E-02  0.50000500000E+01  0.50000000000E+01 0.  0.
         50    1    1    2    0    0 -0.14701746983E-01  0.14213817775E-01 -0.90459117780E-02  0.50000500000E+01  0.50000000000E+01 0. -1.
</event>
<event>
 4    1  0.5060607E-021  0.5000050E+01  0.7818608E-02  0.2136455E+00
        -11   -1    0    0    0    0  0.00000000000E+00  0.00000000000E+00  0.50000499739E+01  0.50000500000E+01  0.51100000000E-03 0. -1.
         11   -1    0    0    0    0 -0.00000000000E+00 -0.00000000000E+00 -0.50000499739E+01  0.50000500000E+01  0.51100000000E-03 0.  1.
         50    1    1    2    0    0  0.18344564360E-01  0.12391315968E-01  0.31519433739E-02  0.50000500000E+01  0.50000000000E+01 0.  1.
         50    1    1    2    0    0 -0.18344564360E-01 -0.12391315968E-01 -0.31519433739E-02  0.50000500000E+01  0.50000000000E+01 0. -1.
</event>
<event>
 4    1  0.5060607E-021  0.5000050E+01  0.7818608E-02  0.2136455E+00
        -11   -1    0    0    0    0  0.00000000000E+00  0.00000000000E+00  0.50000499739E+01  0.50000500000E+01  0.51100000000E-03 0. -1.
         11   -1    0    0    0    0 -0.00000000000E+00 -0.00000000000E+00 -0.50000499739E+01  0.50000500000E+01  0.51100000000E-03 0.  1.
         50    1    1    2    0    0 -0.19725877677E-01 -0.80302915635E-02 -0.68122439249E-02  0.50000500000E+01  0.50000000000E+01 0.  1.
         50    1    1    2    0    0  0.19725877677E-01  0.80302915635E-02  0.68122439249E-02  0.50000500000E+01  0.50000000000E+01 0. -1.
</event>
<event>
 4    1  0.5060607E-021  0.5000050E+01  0.7818608E-02  0.2136455E+00
        -11   -1    0    0    0    0  0.00000000000E+00  0.00000000000E+00  0.50000499739E+01  0.50000500000E+01  0.51100000000E-03 0.  1.
         11   -1    0    0    0    0 -0.00000000000E+00 -0.00000000000E+00 -0.50000499739E+01  0.50000500000E+01  0.51100000000E-03 0. -1.
         50    1    1    2    0    0 -0.13448676164E-01  0.13565602904E-01  0.11623683894E-01  0.50000500000E+01  0.50000000000E+01 0.  1.
         50    1    1    2    0    0  0.13448676164E-01 -0.13565602904E-01 -0.11623683894E-01  0.50000500000E+01  0.50000000000E+01 0. -1.
</event>
<event>
 4    1  0.5060607E-021  0.5000050E+01  0.7818608E-02  0.2136455E+00
        -11   -1    0    0    0    0  0.00000000000E+00  0.00000000000E+00  0.50000499739E+01  0.50000500000E+01  0.51100000000E-03 0.  1.
         11   -1    0    0    0    0 -0.00000000000E+00 -0.00000000000E+00 -0.50000499739E+01  0.50000500000E+01  0.51100000000E-03 0. -1.
         50    1    1    2    0    0 -0.66993009235E-02  0.11554549332E-01  0.17933606912E-01  0.50000500000E+01  0.50000000000E+01 0.  1.
         50    1    1    2    0    0  0.66993009235E-02 -0.11554549332E-01 -0.17933606912E-01  0.50000500000E+01  0.50000000000E+01 0. -1.
</event>
<event>
 4    1  0.5060607E-021  0.5000050E+01  0.7818608E-02  0.2136455E+00
        -11   -1    0    0    0    0  0.00000000000E+00  0.00000000000E+00  0.50000499739E+01  0.50000500000E+01  0.51100000000E-03 0. -1.
         11   -1    0    0    0    0 -0.00000000000E+00 -0.00000000000E+00 -0.50000499739E+01  0.50000500000E+01  0.51100000000E-03 0.  1.
         50    1    1    2    0    0  0.27870352722E-02 -0.20398217575E-01 -0.87262623247E-02  0.50000500000E+01  0.50000000000E+01 0.  1.
         50    1    1    2    0    0 -0.27870352722E-02  0.20398217575E-01  0.87262623247E-02  0.50000500000E+01  0.50000000000E+01 0. -1.
</event>
<event>
 4    1  0.5060607E-021  0.5000050E+01  0.7818608E-02  0.2136455E+00
        -11   -1    0    0    0    0  0.00000000000E+00  0.00000000000E+00  0.50000499739E+01  0.50000500000E+01  0.51100000000E-03 0.  1.
         11   -1    0    0    0    0 -0.00000000000E+00 -0.00000000000E+00 -0.50000499739E+01  0.50000500000E+01  0.51100000000E-03 0. -1.
         50    1    1    2    0    0  0.18136743174E-02 -0.15683737654E-01  0.15834565314E-01  0.50000500000E+01  0.50000000000E+01 0.  1.
         50    1    1    2    0    0 -0.18136743174E-02  0.15683737654E-01 -0.15834565314E-01  0.50000500000E+01  0.50000000000E+01 0.  0.
</event>
<event>
 4    1  0.5060607E-021  0.5000050E+01  0.7818608E-02  0.2136455E+00
        -11   -1    0    0    0    0  0.00000000000E+00  0.00000000000E+00  0.50000499739E+01  0.50000500000E+01  0.51100000000E-03 0.  1.
         11   -1    0    0    0    0 -0.00000000000E+00 -0.00000000000E+00 -0.50000499739E+01  0.50000500000E+01  0.51100000000E-03 0. -1.
         50    1    1    2    0    0  0.19046842780E-01  0.10220695095E-01  0.57234318280E-02  0.50000500000E+01  0.50000000000E+01 0.  1.
         50    1    1    2    0    0 -0.19046842780E-01 -0.10220695095E-01 -0.57234318280E-02  0.50000500000E+01  0.50000000000E+01 0. -1.
</event>
<event>
 4    1  0.5060607E-021  0.5000050E+01  0.7818608E-02  0.2136455E+00
        -11   -1    0    0    0    0  0.00000000000E+00  0.00000000000E+00  0.50000499739E+01  0.50000500000E+01  0.51100000000E-03 0. -1.
         11   -1    0    0    0    0 -0.00000000000E+00 -0.00000000000E+00 -0.50000499739E+01  0.50000500000E+01  0.51100000000E-03 0.  1.
         50    1    1    2    0    0  0.10462107338E-01  0.19653254274E-01 -0.20727774848E-02  0.50000500000E+01  0.50000000000E+01 0.  0.
         50    1    1    2    0    0 -0.10462107338E-01 -0.19653254274E-01  0.20727774848E-02  0.50000500000E+01  0.50000000000E+01 0.  1.
</event>
<event>
 4    1  0.5060607E-021  0.5000050E+01  0.7818608E-02  0.2136455E+00
        -11   -1    0    0    0    0  0.00000000000E+00  0.00000000000E+00  0.50000499739E+01  0.50000500000E+01  0.51100000000E-03 0. -1.
         11   -1    0    0    0    0 -0.00000000000E+00 -0.00000000000E+00 -0.50000499739E+01  0.50000500000E+01  0.51100000000E-03 0.  1.
         50    1    1    2    0    0  0.15095589978E-01 -0.20664128237E-02  0.16366294671E-01  0.50000500000E+01  0.50000000000E+01 0. -1.
         50    1    1    2    0    0 -0.15095589978E-01  0.20664128237E-02 -0.16366294671E-01  0.50000500000E+01  0.50000000000E+01 0.  1.
</event>
<event>
 4    1  0.5060607E-021  0.5000050E+01  0.7818608E-02  0.2136455E+00
        -11   -1    0    0    0    0  0.00000000000E+00  0.00000000000E+00  0.50000499739E+01  0.50000500000E+01  0.51100000000E-03 0.  1.
         11   -1    0    0    0    0 -0.00000000000E+00 -0.00000000000E+00 -0.50000499739E+01  0.50000500000E+01  0.51100000000E-03 0. -1.
         50    1    1    2    0    0 -0.37599383539E-02 -0.14299434850E-01  0.16774728806E-01  0.50000500000E+01  0.50000000000E+01 0.  0.
         50    1    1    2    0    0  0.37599383539E-02  0.14299434850E-01 -0.16774728806E-01  0.50000500000E+01  0.50000000000E+01 0.  0.
</event>
<event>
 4    1  0.5060607E-021  0.5000050E+01  0.7818608E-02  0.2136455E+00
        -11   -1    0    0    0    0  0.00000000000E+00  0.00000000000E+00  0.50000499739E+01  0.50000500000E+01  0.51100000000E-03 0.  1.
         11   -1    0    0    0    0 -0.00000000000E+00 -0.00000000000E+00 -0.50000499739E+01  0.50000500000E+01  0.51100000000E-03 0. -1.
         50    1    1    2    0    0  0.63143317114E-02 -0.19039279728E-01 -0.98811711077E-02  0.50000500000E+01  0.50000000000E+01 0.  0.
         50    1    1    2    0    0 -0.63143317114E-02  0.19039279728E-01  0.98811711077E-02  0.50000500000E+01  0.50000000000E+01 0. -1.
</event>
<event>
 4    1  0.5060607E-021  0.5000050E+01  0.7818608E-02  0.2136455E+00
        -11   -1    0    0    0    0  0.00000000000E+00  0.00000000000E+00  0.50000499739E+01  0.50000500000E+01  0.51100000000E-03 0.  1.
         11   -1    0    0    0    0 -0.00000000000E+00 -0.00000000000E+00 -0.50000499739E+01  0.50000500000E+01  0.51100000000E-03 0. -1.
         50    1    1    2    0    0  0.21176117753E-01 -0.71689227274E-02 -0.42553944775E-03  0.50000500000E+01  0.50000000000E+01 0.  1.
         50    1    1    2    0    0 -0.21176117753E-01  0.71689227274E-02  0.42553944775E-03  0.50000500000E+01  0.50000000000E+01 0. -1.
</event>
<event>
 4    1  0.5060607E-021  0.5000050E+01  0.7818608E-02  0.2136455E+00
        -11   -1    0    0    0    0  0.00000000000E+00  0.00000000000E+00  0.50000499739E+01  0.50000500000E+01  0.51100000000E-03 0.  1.
         11   -1    0    0    0    0 -0.00000000000E+00 -0.00000000000E+00 -0.50000499739E+01  0.50000500000E+01  0.51100000000E-03 0. -1.
         50    1    1    2    0    0 -0.13691224632E-01  0.80933688368E-02 -0.15717832196E-01  0.50000500000E+01  0.50000000000E+01 0. -1.
         50    1    1    2    0    0  0.13691224632E-01 -0.80933688368E-02  0.15717832196E-01  0.50000500000E+01  0.50000000000E+01 0.  1.
</event>
<event>
 4    1  0.5060607E-021  0.5000050E+01  0.7818608E-02  0.2136455E+00
        -11   -1    0    0    0    0  0.00000000000E+00  0.00000000000E+00  0.50000499739E+01  0.50000500000E+01  0.51100000000E-03 0.  1.
         11   -1    0    0    0    0 -0.00000000000E+00 -0.00000000000E+00 -0.50000499739E+01  0.50000500000E+01  0.51100000000E-03 0. -1.
         50    1    1    2    0    0 -0.18129625904E-01 -0.21496449401E-02  0.12911165369E-01  0.50000500000E+01  0.50000000000E+01 0. -1.
         50    1    1    2    0    0  0.18129625904E-01  0.21496449401E-02 -0.12911165369E-01  0.50000500000E+01  0.50000000000E+01 0.  1.
</event>
<event>
 4    1  0.5060607E-021  0.5000050E+01  0.7818608E-02  0.2136455E+00
        -11   -1    0    0    0    0  0.00000000000E+00  0.00000000000E+00  0.50000499739E+01  0.50000500000E+01  0.51100000000E-03 0.  1.
         11   -1    0    0    0    0 -0.00000000000E+00 -0.00000000000E+00 -0.50000499739E+01  0.50000500000E+01  0.51100000000E-03 0. -1.
         50    1    1    2    0    0  0.19251959589E-01 -0.44606835358E-02 -0.10462640888E-01  0.50000500000E+01  0.50000000000E+01 0. -1.
         50    1    1    2    0    0 -0.19251959589E-01  0.44606835358E-02  0.10462640888E-01  0.50000500000E+01  0.50000000000E+01 0. -1.
</event>
<event>
 4    1  0.5060607E-021  0.5000050E+01  0.7818608E-02  0.2136455E+00
        -11   -1    0    0    0    0  0.00000000000E+00  0.00000000000E+00  0.50000499739E+01  0.50000500000E+01  0.51100000000E-03 0.  1.
         11   -1    0    0    0    0 -0.00000000000E+00 -0.00000000000E+00 -0.50000499739E+01  0.50000500000E+01  0.51100000000E-03 0. -1.
         50    1    1    2    0    0  0.14916444793E-01 -0.57072571780E-02  0.15650220134E-01  0.50000500000E+01  0.50000000000E+01 0. -1.
         50    1    1    2    0    0 -0.14916444793E-01  0.57072571780E-02 -0.15650220134E-01  0.50000500000E+01  0.50000000000E+01 0.  0.
</event>
<event>
 4    1  0.5060607E-021  0.5000050E+01  0.7818608E-02  0.2136455E+00
        -11   -1    0    0    0    0  0.00000000000E+00  0.00000000000E+00  0.50000499739E+01  0.50000500000E+01  0.51100000000E-03 0.  1.
         11   -1    0    0    0    0 -0.00000000000E+00 -0.00000000000E+00 -0.50000499739E+01  0.50000500000E+01  0.51100000000E-03 0. -1.
         50    1    1    2    0    0  0.85187997030E-03 -0.84278276792E-02 -0.20694166355E-01  0.50000500000E+01  0.50000000000E+01 0. -1.
         50    1    1    2    0    0 -0.85187997030E-03  0.84278276792E-02  0.20694166355E-01  0.50000500000E+01  0.50000000000E+01 0.  0.
</event>
<event>
 4    1  0.5060607E-021  0.5000050E+01  0.7818608E-02  0.2136455E+00
        -11   -1    0    0    0    0  0.00000000000E+00  0.00000000000E+00  0.50000499739E+01  0.50000500000E+01  0.51100000000E-03 0. -1.
         11   -1    0    0    0    0 -0.00000000000E+00 -0.00000000000E+00 -0.50000499739E+01  0.50000500000E+01  0.51100000000E-03 0.  1.
         50    1    1    2    0    0 -0.20405692680E-01 -0.49332308817E-02  0.76989245562E-02  0.50000500000E+01  0.50000000000E+01 0. -1.
         50    1    1    2    0    0  0.20405692680E-01  0.49332308817E-02 -0.76989245562E-02  0.50000500000E+01  0.50000000000E+01 0. -1.
</event>
<event>
 4    1  0.5060607E-021  0.5000050E+01  0.7818608E-02  0.2136455E+00
        -11   -1    0    0    0    0  0.00000000000E+00  0.00000000000E+00  0.50000499739E+01  0.50000500000E+01  0.51100000000E-03 0.  1.
         11   -1    0    0    0    0 -0.00000000000E+00 -0.00000000000E+00 -0.50000499739E+01  0.50000500000E+01  0.51100000000E-03 0. -1.
         50    1    1    2    0    0  0.26115344894E-02 -0.43969327662E-02 -0.21768081446E-01  0.50000500000E+01  0.50000000000E+01 0. -1.
         50    1    1    2    0    0 -0.26115344894E-02  0.43969327662E-02  0.21768081446E-01  0.50000500000E+01  0.50000000000E+01 0.  0.
</event>
<event>
 4    1  0.5060607E-021  0.5000050E+01  0.7818608E-02  0.2136455E+00
        -11   -1    0    0    0    0  0.00000000000E+00  0.00000000000E+00  0.50000499739E+01  0.50000500000E+01  0.51100000000E-03 0. -1.
         11   -1    0    0    0    0 -0.00000000000E+00 -0.00000000000E+00 -0.50000499739E+01  0.50000500000E+01  0.51100000000E-03 0.  1.
         50    1    1    2    0    0 -0.48742610424E-02 -0.21363471469E-01  0.44549036005E-02  0.50000500000E+01  0.50000000000E+01 0. -1.
         50    1    1    2    0    0  0.48742610424E-02  0.21363471469E-01 -0.44549036005E-02  0.50000500000E+01  0.50000000000E+01 0.  0.
</event>
<event>
 4    1  0.5060607E-021  0.5000050E+01  0.7818608E-02  0.2136455E+00
        -11   -1    0    0    0    0  0.00000000000E+00  0.00000000000E+00  0.50000499739E+01  0.50000500000E+01  0.51100000000E-03 0. -1.
         11   -1    0    0    0    0 -0.00000000000E+00 -0.00000000000E+00 -0.50000499739E+01  0.50000500000E+01  0.51100000000E-03 0.  1.
         50    1    1    2    0    0  0.21611318524E-01 -0.56808205276E-02 -0.82564507193E-03  0.50000500000E+01  0.50000000000E+01 0.  1.
         50    1    1    2    0    0 -0.21611318524E-01  0.56808205276E-02  0.82564507193E-03  0.50000500000E+01  0.50000000000E+01 0.  0.
</event>
<event>
 4    1  0.5060607E-021  0.5000050E+01  0.7818608E-02  0.2136455E+00
        -11   -1    0    0    0    0  0.00000000000E+00  0.00000000000E+00  0.50000499739E+01  0.50000500000E+01  0.51100000000E-03 0.  1.
         11   -1    0    0    0    0 -0.00000000000E+00 -0.00000000000E+00 -0.50000499739E+01  0.50000500000E+01  0.51100000000E-03 0. -1.
         50    1    1    2    0    0 -0.25982125340E-02 -0.19841365625E-01  0.99785771419E-02  0.50000500000E+01  0.50000000000E+01 0.  0.
         50    1    1    2    0    0  0.25982125340E-02  0.19841365625E-01 -0.99785771419E-02  0.50000500000E+01  0.50000000000E+01 0.  0.
</event>
<event>
 4    1  0.5060607E-021  0.5000050E+01  0.7818608E-02  0.2136455E+00
        -11   -1    0    0    0    0  0.00000000000E+00  0.00000000000E+00  0.50000499739E+01  0.50000500000E+01  0.51100000000E-03 0. -1.
         11   -1    0    0    0    0 -0.00000000000E+00 -0.00000000000E+00 -0.50000499739E+01  0.50000500000E+01  0.51100000000E-03 0.  1.
         50    1    1    2    0    0  0.21291026934E-01 -0.34529574846E-02 -0.58967581507E-02  0.50000500000E+01  0.50000000000E+01 0.  1.
         50    1    1    2    0    0 -0.21291026934E-01  0.34529574846E-02  0.58967581507E-02  0.50000500000E+01  0.50000000000E+01 0. -1.
</event>
<event>
 4    1  0.5060607E-021  0.5000050E+01  0.7818608E-02  0.2136455E+00
        -11   -1    0    0    0    0  0.00000000000E+00  0.00000000000E+00  0.50000499739E+01  0.50000500000E+01  0.51100000000E-03 0. -1.
         11   -1    0    0    0    0 -0.00000000000E+00 -0.00000000000E+00 -0.50000499739E+01  0.50000500000E+01  0.51100000000E-03 0.  1.
         50    1    1    2    0    0 -0.83360335125E-02 -0.31000019063E-02  0.20515921463E-01  0.50000500000E+01  0.50000000000E+01 0. -1.
         50    1    1    2    0    0  0.83360335125E-02  0.31000019063E-02 -0.20515921463E-01  0.50000500000E+01  0.50000000000E+01 0.  0.
</event>
<event>
 4    1  0.5060607E-021  0.5000050E+01  0.7818608E-02  0.2136455E+00
        -11   -1    0    0    0    0  0.00000000000E+00  0.00000000000E+00  0.50000499739E+01  0.50000500000E+01  0.51100000000E-03 0.  1.
         11   -1    0    0    0    0 -0.00000000000E+00 -0.00000000000E+00 -0.50000499739E+01  0.50000500000E+01  0.51100000000E-03 0. -1.
         50    1    1    2    0    0  0.22166166525E-01  0.12057069902E-02 -0.26851130792E-02  0.50000500000E+01  0.50000000000E+01 0.  0.
         50    1    1    2    0    0 -0.22166166525E-01 -0.12057069902E-02  0.26851130792E-02  0.50000500000E+01  0.50000000000E+01 0. -1.
</event>
<event>
 4    1  0.5060607E-021  0.5000050E+01  0.7818608E-02  0.2136455E+00
        -11   -1    0    0    0    0  0.00000000000E+00  0.00000000000E+00  0.50000499739E+01  0.50000500000E+01  0.51100000000E-03 0.  1.
         11   -1    0    0    0    0 -0.00000000000E+00 -0.00000000000E+00 -0.50000499739E+01  0.50000500000E+01  0.51100000000E-03 0. -1.
         50    1    1    2    0    0  0.92888367477E-02 -0.14302552310E-01 -0.14462261556E-01  0.50000500000E+01  0.50000000000E+01 0.  1.
         50    1    1    2    0    0 -0.92888367477E-02  0.14302552310E-01  0.14462261556E-01  0.50000500000E+01  0.50000000000E+01 0.  1.
</event>
<event>
 4    1  0.5060607E-021  0.5000050E+01  0.7818608E-02  0.2136455E+00
        -11   -1    0    0    0    0  0.00000000000E+00  0.00000000000E+00  0.50000499739E+01  0.50000500000E+01  0.51100000000E-03 0. -1.
         11   -1    0    0    0    0 -0.00000000000E+00 -0.00000000000E+00 -0.50000499739E+01  0.50000500000E+01  0.51100000000E-03 0.  1.
         50    1    1    2    0    0 -0.87319851127E-02 -0.20205985050E-01  0.39335866782E-02  0.50000500000E+01  0.50000000000E+01 0.  1.
         50    1    1    2    0    0  0.87319851127E-02  0.20205985050E-01 -0.39335866782E-02  0.50000500000E+01  0.50000000000E+01 0.  0.
</event>
<event>
 4    1  0.5060607E-021  0.5000050E+01  0.7818608E-02  0.2136455E+00
        -11   -1    0    0    0    0  0.00000000000E+00  0.00000000000E+00  0.50000499739E+01  0.50000500000E+01  0.51100000000E-03 0.  1.
         11   -1    0    0    0    0 -0.00000000000E+00 -0.00000000000E+00 -0.50000499739E+01  0.50000500000E+01  0.51100000000E-03 0. -1.
         50    1    1    2    0    0 -0.68703811351E-02  0.79686442595E-02  0.19730713918E-01  0.50000500000E+01  0.50000000000E+01 0.  0.
         50    1    1    2    0    0  0.68703811351E-02 -0.79686442595E-02 -0.19730713918E-01  0.50000500000E+01  0.50000000000E+01 0. -1.
</event>
<event>
 4    1  0.5060607E-021  0.5000050E+01  0.7818608E-02  0.2136455E+00
        -11   -1    0    0    0    0  0.00000000000E+00  0.00000000000E+00  0.50000499739E+01  0.50000500000E+01  0.51100000000E-03 0.  1.
         11   -1    0    0    0    0 -0.00000000000E+00 -0.00000000000E+00 -0.50000499739E+01  0.50000500000E+01  0.51100000000E-03 0. -1.
         50    1    1    2    0    0 -0.14920672916E-01 -0.11719917579E-01 -0.11832985746E-01  0.50000500000E+01  0.50000000000E+01 0. -1.
         50    1    1    2    0    0  0.14920672916E-01  0.11719917579E-01  0.11832985746E-01  0.50000500000E+01  0.50000000000E+01 0.  1.
</event>
<event>
 4    1  0.5060607E-021  0.5000050E+01  0.7818608E-02  0.2136455E+00
        -11   -1    0    0    0    0  0.00000000000E+00  0.00000000000E+00  0.50000499739E+01  0.50000500000E+01  0.51100000000E-03 0. -1.
         11   -1    0    0    0    0 -0.00000000000E+00 -0.00000000000E+00 -0.50000499739E+01  0.50000500000E+01  0.51100000000E-03 0.  1.
         50    1    1    2    0    0 -0.12939580709E-01 -0.66382904777E-02  0.16985371665E-01  0.50000500000E+01  0.50000000000E+01 0.  1.
         50    1    1    2    0    0  0.12939580709E-01  0.66382904777E-02 -0.16985371665E-01  0.50000500000E+01  0.50000000000E+01 0.  0.
</event>
<event>
 4    1  0.5060607E-021  0.5000050E+01  0.7818608E-02  0.2136455E+00
        -11   -1    0    0    0    0  0.00000000000E+00  0.00000000000E+00  0.50000499739E+01  0.50000500000E+01  0.51100000000E-03 0. -1.
         11   -1    0    0    0    0 -0.00000000000E+00 -0.00000000000E+00 -0.50000499739E+01  0.50000500000E+01  0.51100000000E-03 0.  1.
         50    1    1    2    0    0  0.10250265229E-01 -0.34277656083E-02  0.19575111383E-01  0.50000500000E+01  0.50000000000E+01 0. -1.
         50    1    1    2    0    0 -0.10250265229E-01  0.34277656083E-02 -0.19575111383E-01  0.50000500000E+01  0.50000000000E+01 0.  0.
</event>
<event>
 4    1  0.5060607E-021  0.5000050E+01  0.7818608E-02  0.2136455E+00
        -11   -1    0    0    0    0  0.00000000000E+00  0.00000000000E+00  0.50000499739E+01  0.50000500000E+01  0.51100000000E-03 0.  1.
         11   -1    0    0    0    0 -0.00000000000E+00 -0.00000000000E+00 -0.50000499739E+01  0.50000500000E+01  0.51100000000E-03 0. -1.
         50    1    1    2    0    0 -0.18904157185E-01 -0.10997097259E-01 -0.46582392595E-02  0.50000500000E+01  0.50000000000E+01 0. -1.
         50    1    1    2    0    0  0.18904157185E-01  0.10997097259E-01  0.46582392595E-02  0.50000500000E+01  0.50000000000E+01 0.  1.
</event>
<event>
 4    1  0.5060607E-021  0.5000050E+01  0.7818608E-02  0.2136455E+00
        -11   -1    0    0    0    0  0.00000000000E+00  0.00000000000E+00  0.50000499739E+01  0.50000500000E+01  0.51100000000E-03 0. -1.
         11   -1    0    0    0    0 -0.00000000000E+00 -0.00000000000E+00 -0.50000499739E+01  0.50000500000E+01  0.51100000000E-03 0.  1.
         50    1    1    2    0    0 -0.49167005869E-02 -0.20413540553E-01  0.76886876269E-02  0.50000500000E+01  0.50000000000E+01 0.  1.
         50    1    1    2    0    0  0.49167005869E-02  0.20413540553E-01 -0.76886876269E-02  0.50000500000E+01  0.50000000000E+01 0.  0.
</event>
<event>
 4    1  0.5060607E-021  0.5000050E+01  0.7818608E-02  0.2136455E+00
        -11   -1    0    0    0    0  0.00000000000E+00  0.00000000000E+00  0.50000499739E+01  0.50000500000E+01  0.51100000000E-03 0.  1.
         11   -1    0    0    0    0 -0.00000000000E+00 -0.00000000000E+00 -0.50000499739E+01  0.50000500000E+01  0.51100000000E-03 0. -1.
         50    1    1    2    0    0  0.13909223025E-01  0.99519112120E-02 -0.14404703332E-01  0.50000500000E+01  0.50000000000E+01 0.  0.
         50    1    1    2    0    0 -0.13909223025E-01 -0.99519112120E-02  0.14404703332E-01  0.50000500000E+01  0.50000000000E+01 0.  0.
</event>
<event>
 4    1  0.5060607E-021  0.5000050E+01  0.7818608E-02  0.2136455E+00
        -11   -1    0    0    0    0  0.00000000000E+00  0.00000000000E+00  0.50000499739E+01  0.50000500000E+01  0.51100000000E-03 0. -1.
         11   -1    0    0    0    0 -0.00000000000E+00 -0.00000000000E+00 -0.50000499739E+01  0.50000500000E+01  0.51100000000E-03 0.  1.
         50    1    1    2    0    0  0.15919838617E-01  0.86803642198E-02  0.13084820038E-01  0.50000500000E+01  0.50000000000E+01 0. -1.
         50    1    1    2    0    0 -0.15919838617E-01 -0.86803642198E-02 -0.13084820038E-01  0.50000500000E+01  0.50000000000E+01 0.  1.
</event>
<event>
 4    1  0.5060607E-021  0.5000050E+01  0.7818608E-02  0.2136455E+00
        -11   -1    0    0    0    0  0.00000000000E+00  0.00000000000E+00  0.50000499739E+01  0.50000500000E+01  0.51100000000E-03 0.  1.
         11   -1    0    0    0    0 -0.00000000000E+00 -0.00000000000E+00 -0.50000499739E+01  0.50000500000E+01  0.51100000000E-03 0. -1.
         50    1    1    2    0    0  0.91371029842E-02  0.77300496985E-02 -0.18888149214E-01  0.50000500000E+01  0.50000000000E+01 0.  0.
         50    1    1    2    0    0 -0.91371029842E-02 -0.77300496985E-02  0.18888149214E-01  0.50000500000E+01  0.50000000000E+01 0.  0.
</event>
<event>
 4    1  0.5060607E-021  0.5000050E+01  0.7818608E-02  0.2136455E+00
        -11   -1    0    0    0    0  0.00000000000E+00  0.00000000000E+00  0.50000499739E+01  0.50000500000E+01  0.51100000000E-03 0. -1.
         11   -1    0    0    0    0 -0.00000000000E+00 -0.00000000000E+00 -0.50000499739E+01  0.50000500000E+01  0.51100000000E-03 0.  1.
         50    1    1    2    0    0 -0.46374800207E-02  0.30314778832E-02  0.21663481274E-01  0.50000500000E+01  0.50000000000E+01 0. -1.
         50    1    1    2    0    0  0.46374800207E-02 -0.30314778832E-02 -0.21663481274E-01  0.50000500000E+01  0.50000000000E+01 0.  0.
</event>
<event>
 4    1  0.5060607E-021  0.5000050E+01  0.7818608E-02  0.2136455E+00
        -11   -1    0    0    0    0  0.00000000000E+00  0.00000000000E+00  0.50000499739E+01  0.50000500000E+01  0.51100000000E-03 0.  1.
         11   -1    0    0    0    0 -0.00000000000E+00 -0.00000000000E+00 -0.50000499739E+01  0.50000500000E+01  0.51100000000E-03 0. -1.
         50    1    1    2    0    0 -0.34656971832E-02 -0.14099217906E-01  0.17005984167E-01  0.50000500000E+01  0.50000000000E+01 0.  1.
         50    1    1    2    0    0  0.34656971832E-02  0.14099217906E-01 -0.17005984167E-01  0.50000500000E+01  0.50000000000E+01 0.  1.
</event>
<event>
 4    1  0.5060607E-021  0.5000050E+01  0.7818608E-02  0.2136455E+00
        -11   -1    0    0    0    0  0.00000000000E+00  0.00000000000E+00  0.50000499739E+01  0.50000500000E+01  0.51100000000E-03 0.  1.
         11   -1    0    0    0    0 -0.00000000000E+00 -0.00000000000E+00 -0.50000499739E+01  0.50000500000E+01  0.51100000000E-03 0. -1.
         50    1    1    2    0    0 -0.41719314017E-02 -0.13503356087E-01 -0.17327921478E-01  0.50000500000E+01  0.50000000000E+01 0.  0.
         50    1    1    2    0    0  0.41719314017E-02  0.13503356087E-01  0.17327921478E-01  0.50000500000E+01  0.50000000000E+01 0.  1.
</event>
<event>
 4    1  0.5060607E-021  0.5000050E+01  0.7818608E-02  0.2136455E+00
        -11   -1    0    0    0    0  0.00000000000E+00  0.00000000000E+00  0.50000499739E+01  0.50000500000E+01  0.51100000000E-03 0. -1.
         11   -1    0    0    0    0 -0.00000000000E+00 -0.00000000000E+00 -0.50000499739E+01  0.50000500000E+01  0.51100000000E-03 0.  1.
         50    1    1    2    0    0  0.19163850226E-01  0.84241548363E-02  0.78602137256E-02  0.50000500000E+01  0.50000000000E+01 0.  0.
         50    1    1    2    0    0 -0.19163850226E-01 -0.84241548363E-02 -0.78602137256E-02  0.50000500000E+01  0.50000000000E+01 0. -1.
</event>
<event>
 4    1  0.5060607E-021  0.5000050E+01  0.7818608E-02  0.2136455E+00
        -11   -1    0    0    0    0  0.00000000000E+00  0.00000000000E+00  0.50000499739E+01  0.50000500000E+01  0.51100000000E-03 0.  1.
         11   -1    0    0    0    0 -0.00000000000E+00 -0.00000000000E+00 -0.50000499739E+01  0.50000500000E+01  0.51100000000E-03 0. -1.
         50    1    1    2    0    0 -0.21650477062E-01  0.44241178566E-02  0.34185558616E-02  0.50000500000E+01  0.50000000000E+01 0.  0.
         50    1    1    2    0    0  0.21650477062E-01 -0.44241178566E-02 -0.34185558616E-02  0.50000500000E+01  0.50000000000E+01 0. -1.
</event>
<event>
 4    1  0.5060607E-021  0.5000050E+01  0.7818608E-02  0.2136455E+00
        -11   -1    0    0    0    0  0.00000000000E+00  0.00000000000E+00  0.50000499739E+01  0.50000500000E+01  0.51100000000E-03 0.  1.
         11   -1    0    0    0    0 -0.00000000000E+00 -0.00000000000E+00 -0.50000499739E+01  0.50000500000E+01  0.51100000000E-03 0. -1.
         50    1    1    2    0    0  0.13790584980E-01 -0.10838880236E-01  0.13868703657E-01  0.50000500000E+01  0.50000000000E+01 0.  0.
         50    1    1    2    0    0 -0.13790584980E-01  0.10838880236E-01 -0.13868703657E-01  0.50000500000E+01  0.50000000000E+01 0.  0.
</event>
<event>
 4    1  0.5060607E-021  0.5000050E+01  0.7818608E-02  0.2136455E+00
        -11   -1    0    0    0    0  0.00000000000E+00  0.00000000000E+00  0.50000499739E+01  0.50000500000E+01  0.51100000000E-03 0.  1.
         11   -1    0    0    0    0 -0.00000000000E+00 -0.00000000000E+00 -0.50000499739E+01  0.50000500000E+01  0.51100000000E-03 0. -1.
         50    1    1    2    0    0  0.53327566051E-02  0.21421893333E-01  0.35590297839E-02  0.50000500000E+01  0.50000000000E+01 0.  0.
         50    1    1    2    0    0 -0.53327566051E-02 -0.21421893333E-01 -0.35590297839E-02  0.50000500000E+01  0.50000000000E+01 0.  1.
</event>
<event>
 4    1  0.5060607E-021  0.5000050E+01  0.7818608E-02  0.2136455E+00
        -11   -1    0    0    0    0  0.00000000000E+00  0.00000000000E+00  0.50000499739E+01  0.50000500000E+01  0.51100000000E-03 0. -1.
         11   -1    0    0    0    0 -0.00000000000E+00 -0.00000000000E+00 -0.50000499739E+01  0.50000500000E+01  0.51100000000E-03 0.  1.
         50    1    1    2    0    0 -0.85730387158E-02  0.19431954763E-02 -0.20560386633E-01  0.50000500000E+01  0.50000000000E+01 0.  0.
         50    1    1    2    0    0  0.85730387158E-02 -0.19431954763E-02  0.20560386633E-01  0.50000500000E+01  0.50000000000E+01 0. -1.
</event>
<event>
 4    1  0.5060607E-021  0.5000050E+01  0.7818608E-02  0.2136455E+00
        -11   -1    0    0    0    0  0.00000000000E+00  0.00000000000E+00  0.50000499739E+01  0.50000500000E+01  0.51100000000E-03 0. -1.
         11   -1    0    0    0    0 -0.00000000000E+00 -0.00000000000E+00 -0.50000499739E+01  0.50000500000E+01  0.51100000000E-03 0.  1.
         50    1    1    2    0    0  0.12455614800E-01 -0.81375751911E-02 -0.16692514189E-01  0.50000500000E+01  0.50000000000E+01 0.  0.
         50    1    1    2    0    0 -0.12455614800E-01  0.81375751911E-02  0.16692514189E-01  0.50000500000E+01  0.50000000000E+01 0.  0.
</event>
<event>
 4    1  0.5060607E-021  0.5000050E+01  0.7818608E-02  0.2136455E+00
        -11   -1    0    0    0    0  0.00000000000E+00  0.00000000000E+00  0.50000499739E+01  0.50000500000E+01  0.51100000000E-03 0.  1.
         11   -1    0    0    0    0 -0.00000000000E+00 -0.00000000000E+00 -0.50000499739E+01  0.50000500000E+01  0.51100000000E-03 0. -1.
         50    1    1    2    0    0 -0.23707272559E-02 -0.19199082416E-01  0.11215051791E-01  0.50000500000E+01  0.50000000000E+01 0.  1.
         50    1    1    2    0    0  0.23707272559E-02  0.19199082416E-01 -0.11215051791E-01  0.50000500000E+01  0.50000000000E+01 0. -1.
</event>
<event>
 4    1  0.5060607E-021  0.5000050E+01  0.7818608E-02  0.2136455E+00
        -11   -1    0    0    0    0  0.00000000000E+00  0.00000000000E+00  0.50000499739E+01  0.50000500000E+01  0.51100000000E-03 0. -1.
         11   -1    0    0    0    0 -0.00000000000E+00 -0.00000000000E+00 -0.50000499739E+01  0.50000500000E+01  0.51100000000E-03 0.  1.
         50    1    1    2    0    0  0.99834946672E-02  0.18787744206E-01  0.68813517467E-02  0.50000500000E+01  0.50000000000E+01 0. -1.
         50    1    1    2    0    0 -0.99834946672E-02 -0.18787744206E-01 -0.68813517467E-02  0.50000500000E+01  0.50000000000E+01 0.  1.
</event>
<event>
 4    1  0.5060607E-021  0.5000050E+01  0.7818608E-02  0.2136455E+00
        -11   -1    0    0    0    0  0.00000000000E+00  0.00000000000E+00  0.50000499739E+01  0.50000500000E+01  0.51100000000E-03 0.  1.
         11   -1    0    0    0    0 -0.00000000000E+00 -0.00000000000E+00 -0.50000499739E+01  0.50000500000E+01  0.51100000000E-03 0. -1.
         50    1    1    2    0    0  0.63854080532E-02  0.15675683046E-01 -0.14611708492E-01  0.50000500000E+01  0.50000000000E+01 0.  1.
         50    1    1    2    0    0 -0.63854080532E-02 -0.15675683046E-01  0.14611708492E-01  0.50000500000E+01  0.50000000000E+01 0.  0.
</event>
<event>
 4    1  0.5060607E-021  0.5000050E+01  0.7818608E-02  0.2136455E+00
        -11   -1    0    0    0    0  0.00000000000E+00  0.00000000000E+00  0.50000499739E+01  0.50000500000E+01  0.51100000000E-03 0. -1.
         11   -1    0    0    0    0 -0.00000000000E+00 -0.00000000000E+00 -0.50000499739E+01  0.50000500000E+01  0.51100000000E-03 0.  1.
         50    1    1    2    0    0  0.15306496773E-01 -0.54965801781E-02  0.15346050400E-01  0.50000500000E+01  0.50000000000E+01 0. -1.
         50    1    1    2    0    0 -0.15306496773E-01  0.54965801781E-02 -0.15346050400E-01  0.50000500000E+01  0.50000000000E+01 0.  1.
</event>
<event>
 4    1  0.5060607E-021  0.5000050E+01  0.7818608E-02  0.2136455E+00
        -11   -1    0    0    0    0  0.00000000000E+00  0.00000000000E+00  0.50000499739E+01  0.50000500000E+01  0.51100000000E-03 0.  1.
         11   -1    0    0    0    0 -0.00000000000E+00 -0.00000000000E+00 -0.50000499739E+01  0.50000500000E+01  0.51100000000E-03 0. -1.
         50    1    1    2    0    0  0.17082175412E-01 -0.48350519359E-02  0.13595001139E-01  0.50000500000E+01  0.50000000000E+01 0.  1.
         50    1    1    2    0    0 -0.17082175412E-01  0.48350519359E-02 -0.13595001139E-01  0.50000500000E+01  0.50000000000E+01 0. -1.
</event>
<event>
 4    1  0.5060607E-021  0.5000050E+01  0.7818608E-02  0.2136455E+00
        -11   -1    0    0    0    0  0.00000000000E+00  0.00000000000E+00  0.50000499739E+01  0.50000500000E+01  0.51100000000E-03 0.  1.
         11   -1    0    0    0    0 -0.00000000000E+00 -0.00000000000E+00 -0.50000499739E+01  0.50000500000E+01  0.51100000000E-03 0. -1.
         50    1    1    2    0    0  0.35997253825E-02  0.12812672480E-01 -0.17968859204E-01  0.50000500000E+01  0.50000000000E+01 0. -1.
         50    1    1    2    0    0 -0.35997253825E-02 -0.12812672480E-01  0.17968859204E-01  0.50000500000E+01  0.50000000000E+01 0.  1.
</event>
<event>
 4    1  0.5060607E-021  0.5000050E+01  0.7818608E-02  0.2136455E+00
        -11   -1    0    0    0    0  0.00000000000E+00  0.00000000000E+00  0.50000499739E+01  0.50000500000E+01  0.51100000000E-03 0.  1.
         11   -1    0    0    0    0 -0.00000000000E+00 -0.00000000000E+00 -0.50000499739E+01  0.50000500000E+01  0.51100000000E-03 0. -1.
         50    1    1    2    0    0  0.21648259109E-01  0.19027519619E-02  0.52663946407E-02  0.50000500000E+01  0.50000000000E+01 0.  0.
         50    1    1    2    0    0 -0.21648259109E-01 -0.19027519619E-02 -0.52663946407E-02  0.50000500000E+01  0.50000000000E+01 0.  0.
</event>
<event>
 4    1  0.5060607E-021  0.5000050E+01  0.7818608E-02  0.2136455E+00
        -11   -1    0    0    0    0  0.00000000000E+00  0.00000000000E+00  0.50000499739E+01  0.50000500000E+01  0.51100000000E-03 0. -1.
         11   -1    0    0    0    0 -0.00000000000E+00 -0.00000000000E+00 -0.50000499739E+01  0.50000500000E+01  0.51100000000E-03 0.  1.
         50    1    1    2    0    0  0.16058811371E-01 -0.12282341973E-01 -0.95530703442E-02  0.50000500000E+01  0.50000000000E+01 0.  1.
         50    1    1    2    0    0 -0.16058811371E-01  0.12282341973E-01  0.95530703442E-02  0.50000500000E+01  0.50000000000E+01 0. -1.
</event>
<event>
 4    1  0.5060607E-021  0.5000050E+01  0.7818608E-02  0.2136455E+00
        -11   -1    0    0    0    0  0.00000000000E+00  0.00000000000E+00  0.50000499739E+01  0.50000500000E+01  0.51100000000E-03 0.  1.
         11   -1    0    0    0    0 -0.00000000000E+00 -0.00000000000E+00 -0.50000499739E+01  0.50000500000E+01  0.51100000000E-03 0. -1.
         50    1    1    2    0    0  0.20636643860E-01  0.57691651918E-02 -0.63912567770E-02  0.50000500000E+01  0.50000000000E+01 0.  1.
         50    1    1    2    0    0 -0.20636643860E-01 -0.57691651918E-02  0.63912567770E-02  0.50000500000E+01  0.50000000000E+01 0. -1.
</event>
<event>
 4    1  0.5060607E-021  0.5000050E+01  0.7818608E-02  0.2136455E+00
        -11   -1    0    0    0    0  0.00000000000E+00  0.00000000000E+00  0.50000499739E+01  0.50000500000E+01  0.51100000000E-03 0.  1.
         11   -1    0    0    0    0 -0.00000000000E+00 -0.00000000000E+00 -0.50000499739E+01  0.50000500000E+01  0.51100000000E-03 0. -1.
         50    1    1    2    0    0 -0.93066524291E-02  0.20194059375E-01  0.23640402958E-02  0.50000500000E+01  0.50000000000E+01 0.  1.
         50    1    1    2    0    0  0.93066524291E-02 -0.20194059375E-01 -0.23640402958E-02  0.50000500000E+01  0.50000000000E+01 0. -1.
</event>
<event>
 4    1  0.5060607E-021  0.5000050E+01  0.7818608E-02  0.2136455E+00
        -11   -1    0    0    0    0  0.00000000000E+00  0.00000000000E+00  0.50000499739E+01  0.50000500000E+01  0.51100000000E-03 0.  1.
         11   -1    0    0    0    0 -0.00000000000E+00 -0.00000000000E+00 -0.50000499739E+01  0.50000500000E+01  0.51100000000E-03 0. -1.
         50    1    1    2    0    0  0.11039200016E-01 -0.19340815622E-01 -0.20177745414E-02  0.50000500000E+01  0.50000000000E+01 0.  1.
         50    1    1    2    0    0 -0.11039200016E-01  0.19340815622E-01  0.20177745414E-02  0.50000500000E+01  0.50000000000E+01 0. -1.
</event>
<event>
 4    1  0.5060607E-021  0.5000050E+01  0.7818608E-02  0.2136455E+00
        -11   -1    0    0    0    0  0.00000000000E+00  0.00000000000E+00  0.50000499739E+01  0.50000500000E+01  0.51100000000E-03 0. -1.
         11   -1    0    0    0    0 -0.00000000000E+00 -0.00000000000E+00 -0.50000499739E+01  0.50000500000E+01  0.51100000000E-03 0.  1.
         50    1    1    2    0    0  0.18906453066E-01 -0.64926611530E-03 -0.11921702311E-01  0.50000500000E+01  0.50000000000E+01 0.  1.
         50    1    1    2    0    0 -0.18906453066E-01  0.64926611530E-03  0.11921702311E-01  0.50000500000E+01  0.50000000000E+01 0.  1.
</event>
<event>
 4    1  0.5060607E-021  0.5000050E+01  0.7818608E-02  0.2136455E+00
        -11   -1    0    0    0    0  0.00000000000E+00  0.00000000000E+00  0.50000499739E+01  0.50000500000E+01  0.51100000000E-03 0.  1.
         11   -1    0    0    0    0 -0.00000000000E+00 -0.00000000000E+00 -0.50000499739E+01  0.50000500000E+01  0.51100000000E-03 0. -1.
         50    1    1    2    0    0 -0.84966943501E-02  0.16424416159E-02  0.20618221811E-01  0.50000500000E+01  0.50000000000E+01 0. -1.
         50    1    1    2    0    0  0.84966943501E-02 -0.16424416159E-02 -0.20618221811E-01  0.50000500000E+01  0.50000000000E+01 0.  0.
</event>
<event>
 4    1  0.5060607E-021  0.5000050E+01  0.7818608E-02  0.2136455E+00
        -11   -1    0    0    0    0  0.00000000000E+00  0.00000000000E+00  0.50000499739E+01  0.50000500000E+01  0.51100000000E-03 0.  1.
         11   -1    0    0    0    0 -0.00000000000E+00 -0.00000000000E+00 -0.50000499739E+01  0.50000500000E+01  0.51100000000E-03 0. -1.
         50    1    1    2    0    0 -0.86925419961E-04 -0.97749545633E-02 -0.20110823137E-01  0.50000500000E+01  0.50000000000E+01 0. -1.
         50    1    1    2    0    0  0.86925419961E-04  0.97749545633E-02  0.20110823137E-01  0.50000500000E+01  0.50000000000E+01 0.  0.
</event>
<event>
 4    1  0.5060607E-021  0.5000050E+01  0.7818608E-02  0.2136455E+00
        -11   -1    0    0    0    0  0.00000000000E+00  0.00000000000E+00  0.50000499739E+01  0.50000500000E+01  0.51100000000E-03 0.  1.
         11   -1    0    0    0    0 -0.00000000000E+00 -0.00000000000E+00 -0.50000499739E+01  0.50000500000E+01  0.51100000000E-03 0. -1.
         50    1    1    2    0    0 -0.15295301417E-01  0.42699806614E-02  0.15742411496E-01  0.50000500000E+01  0.50000000000E+01 0.  1.
         50    1    1    2    0    0  0.15295301417E-01 -0.42699806614E-02 -0.15742411496E-01  0.50000500000E+01  0.50000000000E+01 0. -1.
</event>
<event>
 4    1  0.5060607E-021  0.5000050E+01  0.7818608E-02  0.2136455E+00
        -11   -1    0    0    0    0  0.00000000000E+00  0.00000000000E+00  0.50000499739E+01  0.50000500000E+01  0.51100000000E-03 0. -1.
         11   -1    0    0    0    0 -0.00000000000E+00 -0.00000000000E+00 -0.50000499739E+01  0.50000500000E+01  0.51100000000E-03 0.  1.
         50    1    1    2    0    0  0.14060712094E-01  0.10740822509E-01 -0.13672366556E-01  0.50000500000E+01  0.50000000000E+01 0.  1.
         50    1    1    2    0    0 -0.14060712094E-01 -0.10740822509E-01  0.13672366556E-01  0.50000500000E+01  0.50000000000E+01 0. -1.
</event>
<event>
 4    1  0.5060607E-021  0.5000050E+01  0.7818608E-02  0.2136455E+00
        -11   -1    0    0    0    0  0.00000000000E+00  0.00000000000E+00  0.50000499739E+01  0.50000500000E+01  0.51100000000E-03 0. -1.
         11   -1    0    0    0    0 -0.00000000000E+00 -0.00000000000E+00 -0.50000499739E+01  0.50000500000E+01  0.51100000000E-03 0.  1.
         50    1    1    2    0    0  0.24562804854E-02  0.60226386543E-02 -0.21393854487E-01  0.50000500000E+01  0.50000000000E+01 0.  0.
         50    1    1    2    0    0 -0.24562804854E-02 -0.60226386543E-02  0.21393854487E-01  0.50000500000E+01  0.50000000000E+01 0. -1.
</event>
<event>
 4    1  0.5060607E-021  0.5000050E+01  0.7818608E-02  0.2136455E+00
        -11   -1    0    0    0    0  0.00000000000E+00  0.00000000000E+00  0.50000499739E+01  0.50000500000E+01  0.51100000000E-03 0. -1.
         11   -1    0    0    0    0 -0.00000000000E+00 -0.00000000000E+00 -0.50000499739E+01  0.50000500000E+01  0.51100000000E-03 0.  1.
         50    1    1    2    0    0 -0.35390345393E-02  0.15362980932E-01 -0.15857381606E-01  0.50000500000E+01  0.50000000000E+01 0.  1.
         50    1    1    2    0    0  0.35390345393E-02 -0.15362980932E-01  0.15857381606E-01  0.50000500000E+01  0.50000000000E+01 0. -1.
</event>
<event>
 4    1  0.5060607E-021  0.5000050E+01  0.7818608E-02  0.2136455E+00
        -11   -1    0    0    0    0  0.00000000000E+00  0.00000000000E+00  0.50000499739E+01  0.50000500000E+01  0.51100000000E-03 0.  1.
         11   -1    0    0    0    0 -0.00000000000E+00 -0.00000000000E+00 -0.50000499739E+01  0.50000500000E+01  0.51100000000E-03 0. -1.
         50    1    1    2    0    0  0.16742899683E-01 -0.14780353477E-01 -0.11040658060E-02  0.50000500000E+01  0.50000000000E+01 0.  0.
         50    1    1    2    0    0 -0.16742899683E-01  0.14780353477E-01  0.11040658060E-02  0.50000500000E+01  0.50000000000E+01 0.  1.
</event>
<event>
 4    1  0.5060607E-021  0.5000050E+01  0.7818608E-02  0.2136455E+00
        -11   -1    0    0    0    0  0.00000000000E+00  0.00000000000E+00  0.50000499739E+01  0.50000500000E+01  0.51100000000E-03 0.  1.
         11   -1    0    0    0    0 -0.00000000000E+00 -0.00000000000E+00 -0.50000499739E+01  0.50000500000E+01  0.51100000000E-03 0. -1.
         50    1    1    2    0    0 -0.13931816774E-02  0.32602933449E-02 -0.22077862943E-01  0.50000500000E+01  0.50000000000E+01 0. -1.
         50    1    1    2    0    0  0.13931816774E-02 -0.32602933449E-02  0.22077862943E-01  0.50000500000E+01  0.50000000000E+01 0.  0.
</event>
<event>
 4    1  0.5060607E-021  0.5000050E+01  0.7818608E-02  0.2136455E+00
        -11   -1    0    0    0    0  0.00000000000E+00  0.00000000000E+00  0.50000499739E+01  0.50000500000E+01  0.51100000000E-03 0.  1.
         11   -1    0    0    0    0 -0.00000000000E+00 -0.00000000000E+00 -0.50000499739E+01  0.50000500000E+01  0.51100000000E-03 0. -1.
         50    1    1    2    0    0  0.39167802277E-02  0.18642105678E-01 -0.11710389769E-01  0.50000500000E+01  0.50000000000E+01 0. -1.
         50    1    1    2    0    0 -0.39167802277E-02 -0.18642105678E-01  0.11710389769E-01  0.50000500000E+01  0.50000000000E+01 0.  1.
</event>
<event>
 4    1  0.5060607E-021  0.5000050E+01  0.7818608E-02  0.2136455E+00
        -11   -1    0    0    0    0  0.00000000000E+00  0.00000000000E+00  0.50000499739E+01  0.50000500000E+01  0.51100000000E-03 0. -1.
         11   -1    0    0    0    0 -0.00000000000E+00 -0.00000000000E+00 -0.50000499739E+01  0.50000500000E+01  0.51100000000E-03 0.  1.
         50    1    1    2    0    0 -0.87012198829E-02 -0.20557453307E-01  0.12970682629E-02  0.50000500000E+01  0.50000000000E+01 0.  1.
         50    1    1    2    0    0  0.87012198829E-02  0.20557453307E-01 -0.12970682629E-02  0.50000500000E+01  0.50000000000E+01 0.  0.
</event>
<event>
 4    1  0.5060607E-021  0.5000050E+01  0.7818608E-02  0.2136455E+00
        -11   -1    0    0    0    0  0.00000000000E+00  0.00000000000E+00  0.50000499739E+01  0.50000500000E+01  0.51100000000E-03 0. -1.
         11   -1    0    0    0    0 -0.00000000000E+00 -0.00000000000E+00 -0.50000499739E+01  0.50000500000E+01  0.51100000000E-03 0.  1.
         50    1    1    2    0    0 -0.10374783186E-01  0.19529259508E-01 -0.33127627284E-02  0.50000500000E+01  0.50000000000E+01 0.  1.
         50    1    1    2    0    0  0.10374783186E-01 -0.19529259508E-01  0.33127627284E-02  0.50000500000E+01  0.50000000000E+01 0.  0.
</event>
<event>
 4    1  0.5060607E-021  0.5000050E+01  0.7818608E-02  0.2136455E+00
        -11   -1    0    0    0    0  0.00000000000E+00  0.00000000000E+00  0.50000499739E+01  0.50000500000E+01  0.51100000000E-03 0. -1.
         11   -1    0    0    0    0 -0.00000000000E+00 -0.00000000000E+00 -0.50000499739E+01  0.50000500000E+01  0.51100000000E-03 0.  1.
         50    1    1    2    0    0 -0.18941405922E-01 -0.91668785011E-02 -0.75626701789E-02  0.50000500000E+01  0.50000000000E+01 0.  0.
         50    1    1    2    0    0  0.18941405922E-01  0.91668785011E-02  0.75626701789E-02  0.50000500000E+01  0.50000000000E+01 0.  0.
</event>
<event>
 4    1  0.5060607E-021  0.5000050E+01  0.7818608E-02  0.2136455E+00
        -11   -1    0    0    0    0  0.00000000000E+00  0.00000000000E+00  0.50000499739E+01  0.50000500000E+01  0.51100000000E-03 0. -1.
         11   -1    0    0    0    0 -0.00000000000E+00 -0.00000000000E+00 -0.50000499739E+01  0.50000500000E+01  0.51100000000E-03 0.  1.
         50    1    1    2    0    0 -0.22195094262E-01 -0.20581767310E-02  0.17731890064E-02  0.50000500000E+01  0.50000000000E+01 0.  1.
         50    1    1    2    0    0  0.22195094262E-01  0.20581767310E-02 -0.17731890064E-02  0.50000500000E+01  0.50000000000E+01 0. -1.
</event>
<event>
 4    1  0.5060607E-021  0.5000050E+01  0.7818608E-02  0.2136455E+00
        -11   -1    0    0    0    0  0.00000000000E+00  0.00000000000E+00  0.50000499739E+01  0.50000500000E+01  0.51100000000E-03 0. -1.
         11   -1    0    0    0    0 -0.00000000000E+00 -0.00000000000E+00 -0.50000499739E+01  0.50000500000E+01  0.51100000000E-03 0.  1.
         50    1    1    2    0    0  0.16262214452E-01  0.12719154290E-01 -0.85887132476E-02  0.50000500000E+01  0.50000000000E+01 0.  1.
         50    1    1    2    0    0 -0.16262214452E-01 -0.12719154290E-01  0.85887132476E-02  0.50000500000E+01  0.50000000000E+01 0. -1.
</event>
<event>
 4    1  0.5060607E-021  0.5000050E+01  0.7818608E-02  0.2136455E+00
        -11   -1    0    0    0    0  0.00000000000E+00  0.00000000000E+00  0.50000499739E+01  0.50000500000E+01  0.51100000000E-03 0.  1.
         11   -1    0    0    0    0 -0.00000000000E+00 -0.00000000000E+00 -0.50000499739E+01  0.50000500000E+01  0.51100000000E-03 0. -1.
         50    1    1    2    0    0  0.20944022015E-01 -0.68083252862E-02 -0.38726152191E-02  0.50000500000E+01  0.50000000000E+01 0.  1.
         50    1    1    2    0    0 -0.20944022015E-01  0.68083252862E-02  0.38726152191E-02  0.50000500000E+01  0.50000000000E+01 0. -1.
</event>
<event>
 4    1  0.5060607E-021  0.5000050E+01  0.7818608E-02  0.2136455E+00
        -11   -1    0    0    0    0  0.00000000000E+00  0.00000000000E+00  0.50000499739E+01  0.50000500000E+01  0.51100000000E-03 0.  1.
         11   -1    0    0    0    0 -0.00000000000E+00 -0.00000000000E+00 -0.50000499739E+01  0.50000500000E+01  0.51100000000E-03 0. -1.
         50    1    1    2    0    0 -0.20943898261E-01 -0.78511512332E-04 -0.78325897094E-02  0.50000500000E+01  0.50000000000E+01 0. -1.
         50    1    1    2    0    0  0.20943898261E-01  0.78511512332E-04  0.78325897094E-02  0.50000500000E+01  0.50000000000E+01 0.  1.
</event>
<event>
 4    1  0.5060607E-021  0.5000050E+01  0.7818608E-02  0.2136455E+00
        -11   -1    0    0    0    0  0.00000000000E+00  0.00000000000E+00  0.50000499739E+01  0.50000500000E+01  0.51100000000E-03 0.  1.
         11   -1    0    0    0    0 -0.00000000000E+00 -0.00000000000E+00 -0.50000499739E+01  0.50000500000E+01  0.51100000000E-03 0. -1.
         50    1    1    2    0    0  0.29579136588E-02 -0.20699722747E-02 -0.22067361908E-01  0.50000500000E+01  0.50000000000E+01 0. -1.
         50    1    1    2    0    0 -0.29579136588E-02  0.20699722747E-02  0.22067361908E-01  0.50000500000E+01  0.50000000000E+01 0.  0.
</event>
<event>
 4    1  0.5060607E-021  0.5000050E+01  0.7818608E-02  0.2136455E+00
        -11   -1    0    0    0    0  0.00000000000E+00  0.00000000000E+00  0.50000499739E+01  0.50000500000E+01  0.51100000000E-03 0. -1.
         11   -1    0    0    0    0 -0.00000000000E+00 -0.00000000000E+00 -0.50000499739E+01  0.50000500000E+01  0.51100000000E-03 0.  1.
         50    1    1    2    0    0 -0.15732444574E-01 -0.15242062270E-01  0.44913500752E-02  0.50000500000E+01  0.50000000000E+01 0.  0.
         50    1    1    2    0    0  0.15732444574E-01  0.15242062270E-01 -0.44913500752E-02  0.50000500000E+01  0.50000000000E+01 0. -1.
</event>
<event>
 4    1  0.5060607E-021  0.5000050E+01  0.7818608E-02  0.2136455E+00
        -11   -1    0    0    0    0  0.00000000000E+00  0.00000000000E+00  0.50000499739E+01  0.50000500000E+01  0.51100000000E-03 0.  1.
         11   -1    0    0    0    0 -0.00000000000E+00 -0.00000000000E+00 -0.50000499739E+01  0.50000500000E+01  0.51100000000E-03 0. -1.
         50    1    1    2    0    0  0.12030034965E-01 -0.18633853585E-01  0.28390595787E-02  0.50000500000E+01  0.50000000000E+01 0. -1.
         50    1    1    2    0    0 -0.12030034965E-01  0.18633853585E-01 -0.28390595787E-02  0.50000500000E+01  0.50000000000E+01 0.  0.
</event>
<event>
 4    1  0.5060607E-021  0.5000050E+01  0.7818608E-02  0.2136455E+00
        -11   -1    0    0    0    0  0.00000000000E+00  0.00000000000E+00  0.50000499739E+01  0.50000500000E+01  0.51100000000E-03 0. -1.
         11   -1    0    0    0    0 -0.00000000000E+00 -0.00000000000E+00 -0.50000499739E+01  0.50000500000E+01  0.51100000000E-03 0.  1.
         50    1    1    2    0    0 -0.21529653520E-01 -0.59290991781E-02  0.11499140162E-02  0.50000500000E+01  0.50000000000E+01 0.  1.
         50    1    1    2    0    0  0.21529653520E-01  0.59290991781E-02 -0.11499140162E-02  0.50000500000E+01  0.50000000000E+01 0. -1.
</event>
<event>
 4    1  0.5060607E-021  0.5000050E+01  0.7818608E-02  0.2136455E+00
        -11   -1    0    0    0    0  0.00000000000E+00  0.00000000000E+00  0.50000499739E+01  0.50000500000E+01  0.51100000000E-03 0.  1.
         11   -1    0    0    0    0 -0.00000000000E+00 -0.00000000000E+00 -0.50000499739E+01  0.50000500000E+01  0.51100000000E-03 0. -1.
         50    1    1    2    0    0  0.94435206254E-02  0.56296034998E-02 -0.19471260427E-01  0.50000500000E+01  0.50000000000E+01 0. -1.
         50    1    1    2    0    0 -0.94435206254E-02 -0.56296034998E-02  0.19471260427E-01  0.50000500000E+01  0.50000000000E+01 0.  0.
</event>
<event>
 4    1  0.5060607E-021  0.5000050E+01  0.7818608E-02  0.2136455E+00
        -11   -1    0    0    0    0  0.00000000000E+00  0.00000000000E+00  0.50000499739E+01  0.50000500000E+01  0.51100000000E-03 0.  1.
         11   -1    0    0    0    0 -0.00000000000E+00 -0.00000000000E+00 -0.50000499739E+01  0.50000500000E+01  0.51100000000E-03 0. -1.
         50    1    1    2    0    0 -0.60884021135E-02  0.21372344082E-01  0.24812835671E-02  0.50000500000E+01  0.50000000000E+01 0.  1.
         50    1    1    2    0    0  0.60884021135E-02 -0.21372344082E-01 -0.24812835671E-02  0.50000500000E+01  0.50000000000E+01 0. -1.
</event>
<event>
 4    1  0.5060607E-021  0.5000050E+01  0.7818608E-02  0.2136455E+00
        -11   -1    0    0    0    0  0.00000000000E+00  0.00000000000E+00  0.50000499739E+01  0.50000500000E+01  0.51100000000E-03 0.  1.
         11   -1    0    0    0    0 -0.00000000000E+00 -0.00000000000E+00 -0.50000499739E+01  0.50000500000E+01  0.51100000000E-03 0. -1.
         50    1    1    2    0    0 -0.13148847928E-01  0.13263894387E-01  0.12295503400E-01  0.50000500000E+01  0.50000000000E+01 0. -1.
         50    1    1    2    0    0  0.13148847928E-01 -0.13263894387E-01 -0.12295503400E-01  0.50000500000E+01  0.50000000000E+01 0.  0.
</event>
<event>
 4    1  0.5060607E-021  0.5000050E+01  0.7818608E-02  0.2136455E+00
        -11   -1    0    0    0    0  0.00000000000E+00  0.00000000000E+00  0.50000499739E+01  0.50000500000E+01  0.51100000000E-03 0. -1.
         11   -1    0    0    0    0 -0.00000000000E+00 -0.00000000000E+00 -0.50000499739E+01  0.50000500000E+01  0.51100000000E-03 0.  1.
         50    1    1    2    0    0  0.79926134727E-02  0.20406612870E-01 -0.44374295534E-02  0.50000500000E+01  0.50000000000E+01 0. -1.
         50    1    1    2    0    0 -0.79926134727E-02 -0.20406612870E-01  0.44374295534E-02  0.50000500000E+01  0.50000000000E+01 0.  1.
</event>
<event>
 4    1  0.5060607E-021  0.5000050E+01  0.7818608E-02  0.2136455E+00
        -11   -1    0    0    0    0  0.00000000000E+00  0.00000000000E+00  0.50000499739E+01  0.50000500000E+01  0.51100000000E-03 0. -1.
         11   -1    0    0    0    0 -0.00000000000E+00 -0.00000000000E+00 -0.50000499739E+01  0.50000500000E+01  0.51100000000E-03 0.  1.
         50    1    1    2    0    0  0.66809162108E-02 -0.19504002718E-01 -0.86580446148E-02  0.50000500000E+01  0.50000000000E+01 0. -1.
         50    1    1    2    0    0 -0.66809162108E-02  0.19504002718E-01  0.86580446148E-02  0.50000500000E+01  0.50000000000E+01 0. -1.
</event>
<event>
 4    1  0.5060607E-021  0.5000050E+01  0.7818608E-02  0.2136455E+00
        -11   -1    0    0    0    0  0.00000000000E+00  0.00000000000E+00  0.50000499739E+01  0.50000500000E+01  0.51100000000E-03 0.  1.
         11   -1    0    0    0    0 -0.00000000000E+00 -0.00000000000E+00 -0.50000499739E+01  0.50000500000E+01  0.51100000000E-03 0. -1.
         50    1    1    2    0    0 -0.14835239325E-01  0.14548227344E-01 -0.82624000942E-02  0.50000500000E+01  0.50000000000E+01 0.  0.
         50    1    1    2    0    0  0.14835239325E-01 -0.14548227344E-01  0.82624000942E-02  0.50000500000E+01  0.50000000000E+01 0. -1.
</event>
<event>
 4    1  0.5060607E-021  0.5000050E+01  0.7818608E-02  0.2136455E+00
        -11   -1    0    0    0    0  0.00000000000E+00  0.00000000000E+00  0.50000499739E+01  0.50000500000E+01  0.51100000000E-03 0.  1.
         11   -1    0    0    0    0 -0.00000000000E+00 -0.00000000000E+00 -0.50000499739E+01  0.50000500000E+01  0.51100000000E-03 0. -1.
         50    1    1    2    0    0  0.14972827146E-01 -0.15986134080E-01 -0.45011625663E-02  0.50000500000E+01  0.50000000000E+01 0. -1.
         50    1    1    2    0    0 -0.14972827146E-01  0.15986134080E-01  0.45011625663E-02  0.50000500000E+01  0.50000000000E+01 0.  1.
</event>
<event>
 4    1  0.5060607E-021  0.5000050E+01  0.7818608E-02  0.2136455E+00
        -11   -1    0    0    0    0  0.00000000000E+00  0.00000000000E+00  0.50000499739E+01  0.50000500000E+01  0.51100000000E-03 0. -1.
         11   -1    0    0    0    0 -0.00000000000E+00 -0.00000000000E+00 -0.50000499739E+01  0.50000500000E+01  0.51100000000E-03 0.  1.
         50    1    1    2    0    0 -0.24916139437E-02 -0.66444029900E-02 -0.21204864274E-01  0.50000500000E+01  0.50000000000E+01 0.  0.
         50    1    1    2    0    0  0.24916139437E-02  0.66444029900E-02  0.21204864274E-01  0.50000500000E+01  0.50000000000E+01 0.  0.
</event>
<event>
 4    1  0.5060607E-021  0.5000050E+01  0.7818608E-02  0.2136455E+00
        -11   -1    0    0    0    0  0.00000000000E+00  0.00000000000E+00  0.50000499739E+01  0.50000500000E+01  0.51100000000E-03 0.  1.
         11   -1    0    0    0    0 -0.00000000000E+00 -0.00000000000E+00 -0.50000499739E+01  0.50000500000E+01  0.51100000000E-03 0. -1.
         50    1    1    2    0    0  0.10764354351E-01 -0.18336200355E-02 -0.19513303487E-01  0.50000500000E+01  0.50000000000E+01 0.  0.
         50    1    1    2    0    0 -0.10764354351E-01  0.18336200355E-02  0.19513303487E-01  0.50000500000E+01  0.50000000000E+01 0.  0.
</event>
<event>
 4    1  0.5060607E-021  0.5000050E+01  0.7818608E-02  0.2136455E+00
        -11   -1    0    0    0    0  0.00000000000E+00  0.00000000000E+00  0.50000499739E+01  0.50000500000E+01  0.51100000000E-03 0.  1.
         11   -1    0    0    0    0 -0.00000000000E+00 -0.00000000000E+00 -0.50000499739E+01  0.50000500000E+01  0.51100000000E-03 0. -1.
         50    1    1    2    0    0 -0.11921098598E-01 -0.18043500836E-01  0.56852428090E-02  0.50000500000E+01  0.50000000000E+01 0. -1.
         50    1    1    2    0    0  0.11921098598E-01  0.18043500836E-01 -0.56852428090E-02  0.50000500000E+01  0.50000000000E+01 0.  0.
</event>
<event>
 4    1  0.5060607E-021  0.5000050E+01  0.7818608E-02  0.2136455E+00
        -11   -1    0    0    0    0  0.00000000000E+00  0.00000000000E+00  0.50000499739E+01  0.50000500000E+01  0.51100000000E-03 0.  1.
         11   -1    0    0    0    0 -0.00000000000E+00 -0.00000000000E+00 -0.50000499739E+01  0.50000500000E+01  0.51100000000E-03 0. -1.
         50    1    1    2    0    0 -0.46553408402E-02 -0.21661645889E-01 -0.30171839591E-02  0.50000500000E+01  0.50000000000E+01 0. -1.
         50    1    1    2    0    0  0.46553408402E-02  0.21661645889E-01  0.30171839591E-02  0.50000500000E+01  0.50000000000E+01 0.  1.
</event>
<event>
 4    1  0.5060607E-021  0.5000050E+01  0.7818608E-02  0.2136455E+00
        -11   -1    0    0    0    0  0.00000000000E+00  0.00000000000E+00  0.50000499739E+01  0.50000500000E+01  0.51100000000E-03 0. -1.
         11   -1    0    0    0    0 -0.00000000000E+00 -0.00000000000E+00 -0.50000499739E+01  0.50000500000E+01  0.51100000000E-03 0.  1.
         50    1    1    2    0    0 -0.18930852313E-01 -0.56716731683E-02  0.10462191652E-01  0.50000500000E+01  0.50000000000E+01 0.  0.
         50    1    1    2    0    0  0.18930852313E-01  0.56716731683E-02 -0.10462191652E-01  0.50000500000E+01  0.50000000000E+01 0. -1.
</event>
<event>
 4    1  0.5060607E-021  0.5000050E+01  0.7818608E-02  0.2136455E+00
        -11   -1    0    0    0    0  0.00000000000E+00  0.00000000000E+00  0.50000499739E+01  0.50000500000E+01  0.51100000000E-03 0.  1.
         11   -1    0    0    0    0 -0.00000000000E+00 -0.00000000000E+00 -0.50000499739E+01  0.50000500000E+01  0.51100000000E-03 0. -1.
         50    1    1    2    0    0 -0.42542769465E-02 -0.74038178512E-02  0.20666085960E-01  0.50000500000E+01  0.50000000000E+01 0.  0.
         50    1    1    2    0    0  0.42542769465E-02  0.74038178512E-02 -0.20666085960E-01  0.50000500000E+01  0.50000000000E+01 0.  0.
</event>
<event>
 4    1  0.5060607E-021  0.5000050E+01  0.7818608E-02  0.2136455E+00
        -11   -1    0    0    0    0  0.00000000000E+00  0.00000000000E+00  0.50000499739E+01  0.50000500000E+01  0.51100000000E-03 0. -1.
         11   -1    0    0    0    0 -0.00000000000E+00 -0.00000000000E+00 -0.50000499739E+01  0.50000500000E+01  0.51100000000E-03 0.  1.
         50    1    1    2    0    0 -0.18865229967E-01 -0.10197726523E-01  0.63334013014E-02  0.50000500000E+01  0.50000000000E+01 0. -1.
         50    1    1    2    0    0  0.18865229967E-01  0.10197726523E-01 -0.63334013014E-02  0.50000500000E+01  0.50000000000E+01 0.  0.
</event>
<event>
 4    1  0.5060607E-021  0.5000050E+01  0.7818608E-02  0.2136455E+00
        -11   -1    0    0    0    0  0.00000000000E+00  0.00000000000E+00  0.50000499739E+01  0.50000500000E+01  0.51100000000E-03 0. -1.
         11   -1    0    0    0    0 -0.00000000000E+00 -0.00000000000E+00 -0.50000499739E+01  0.50000500000E+01  0.51100000000E-03 0.  1.
         50    1    1    2    0    0 -0.96865253101E-02  0.18313693122E-02 -0.20070371543E-01  0.50000500000E+01  0.50000000000E+01 0.  1.
         50    1    1    2    0    0  0.96865253101E-02 -0.18313693122E-02  0.20070371543E-01  0.50000500000E+01  0.50000000000E+01 0. -1.
</event>
<event>
 4    1  0.5060607E-021  0.5000050E+01  0.7818608E-02  0.2136455E+00
        -11   -1    0    0    0    0  0.00000000000E+00  0.00000000000E+00  0.50000499739E+01  0.50000500000E+01  0.51100000000E-03 0.  1.
         11   -1    0    0    0    0 -0.00000000000E+00 -0.00000000000E+00 -0.50000499739E+01  0.50000500000E+01  0.51100000000E-03 0. -1.
         50    1    1    2    0    0 -0.35305433142E-02 -0.70850627070E-02  0.20912667222E-01  0.50000500000E+01  0.50000000000E+01 0.  1.
         50    1    1    2    0    0  0.35305433142E-02  0.70850627070E-02 -0.20912667222E-01  0.50000500000E+01  0.50000000000E+01 0.  0.
</event>
<event>
 4    1  0.5060607E-021  0.5000050E+01  0.7818608E-02  0.2136455E+00
        -11   -1    0    0    0    0  0.00000000000E+00  0.00000000000E+00  0.50000499739E+01  0.50000500000E+01  0.51100000000E-03 0. -1.
         11   -1    0    0    0    0 -0.00000000000E+00 -0.00000000000E+00 -0.50000499739E+01  0.50000500000E+01  0.51100000000E-03 0.  1.
         50    1    1    2    0    0 -0.15353714257E-01 -0.16224081485E-01 -0.10223201446E-02  0.50000500000E+01  0.50000000000E+01 0.  0.
         50    1    1    2    0    0  0.15353714257E-01  0.16224081485E-01  0.10223201446E-02  0.50000500000E+01  0.50000000000E+01 0.  1.
</event>
<event>
 4    1  0.5060607E-021  0.5000050E+01  0.7818608E-02  0.2136455E+00
        -11   -1    0    0    0    0  0.00000000000E+00  0.00000000000E+00  0.50000499739E+01  0.50000500000E+01  0.51100000000E-03 0.  1.
         11   -1    0    0    0    0 -0.00000000000E+00 -0.00000000000E+00 -0.50000499739E+01  0.50000500000E+01  0.51100000000E-03 0. -1.
         50    1    1    2    0    0  0.23096089283E-02  0.45792726131E-02  0.21764615065E-01  0.50000500000E+01  0.50000000000E+01 0.  0.
         50    1    1    2    0    0 -0.23096089283E-02 -0.45792726131E-02 -0.21764615065E-01  0.50000500000E+01  0.50000000000E+01 0. -1.
</event>
<event>
 4    1  0.5060607E-021  0.5000050E+01  0.7818608E-02  0.2136455E+00
        -11   -1    0    0    0    0  0.00000000000E+00  0.00000000000E+00  0.50000499739E+01  0.50000500000E+01  0.51100000000E-03 0.  1.
         11   -1    0    0    0    0 -0.00000000000E+00 -0.00000000000E+00 -0.50000499739E+01  0.50000500000E+01  0.51100000000E-03 0. -1.
         50    1    1    2    0    0  0.19650227397E-01 -0.92615294679E-02 -0.53004844269E-02  0.50000500000E+01  0.50000000000E+01 0. -1.
         50    1    1    2    0    0 -0.19650227397E-01  0.92615294679E-02  0.53004844269E-02  0.50000500000E+01  0.50000000000E+01 0.  0.
</event>
<event>
 4    1  0.5060607E-021  0.5000050E+01  0.7818608E-02  0.2136455E+00
        -11   -1    0    0    0    0  0.00000000000E+00  0.00000000000E+00  0.50000499739E+01  0.50000500000E+01  0.51100000000E-03 0.  1.
         11   -1    0    0    0    0 -0.00000000000E+00 -0.00000000000E+00 -0.50000499739E+01  0.50000500000E+01  0.51100000000E-03 0. -1.
         50    1    1    2    0    0 -0.46099004873E-02  0.73224326391E-02 -0.20618760820E-01  0.50000500000E+01  0.50000000000E+01 0.  0.
         50    1    1    2    0    0  0.46099004873E-02 -0.73224326391E-02  0.20618760820E-01  0.50000500000E+01  0.50000000000E+01 0.  0.
</event>
<event>
 4    1  0.5060607E-021  0.5000050E+01  0.7818608E-02  0.2136455E+00
        -11   -1    0    0    0    0  0.00000000000E+00  0.00000000000E+00  0.50000499739E+01  0.50000500000E+01  0.51100000000E-03 0.  1.
         11   -1    0    0    0    0 -0.00000000000E+00 -0.00000000000E+00 -0.50000499739E+01  0.50000500000E+01  0.51100000000E-03 0. -1.
         50    1    1    2    0    0  0.13004525022E-01 -0.46133221454E-02  0.17595513284E-01  0.50000500000E+01  0.50000000000E+01 0. -1.
         50    1    1    2    0    0 -0.13004525022E-01  0.46133221454E-02 -0.17595513284E-01  0.50000500000E+01  0.50000000000E+01 0. -1.
</event>
<event>
 4    1  0.5060607E-021  0.5000050E+01  0.7818608E-02  0.2136455E+00
        -11   -1    0    0    0    0  0.00000000000E+00  0.00000000000E+00  0.50000499739E+01  0.50000500000E+01  0.51100000000E-03 0.  1.
         11   -1    0    0    0    0 -0.00000000000E+00 -0.00000000000E+00 -0.50000499739E+01  0.50000500000E+01  0.51100000000E-03 0. -1.
         50    1    1    2    0    0 -0.16301058373E-01  0.71923256885E-02 -0.13511049075E-01  0.50000500000E+01  0.50000000000E+01 0.  1.
         50    1    1    2    0    0  0.16301058373E-01 -0.71923256885E-02  0.13511049075E-01  0.50000500000E+01  0.50000000000E+01 0.  1.
</event>
<event>
 4    1  0.5060607E-021  0.5000050E+01  0.7818608E-02  0.2136455E+00
        -11   -1    0    0    0    0  0.00000000000E+00  0.00000000000E+00  0.50000499739E+01  0.50000500000E+01  0.51100000000E-03 0. -1.
         11   -1    0    0    0    0 -0.00000000000E+00 -0.00000000000E+00 -0.50000499739E+01  0.50000500000E+01  0.51100000000E-03 0.  1.
         50    1    1    2    0    0  0.16993980134E-01 -0.86999563992E-02  0.11641215480E-01  0.50000500000E+01  0.50000000000E+01 0. -1.
         50    1    1    2    0    0 -0.16993980134E-01  0.86999563992E-02 -0.11641215480E-01  0.50000500000E+01  0.50000000000E+01 0.  1.
</event>
<event>
 4    1  0.5060607E-021  0.5000050E+01  0.7818608E-02  0.2136455E+00
        -11   -1    0    0    0    0  0.00000000000E+00  0.00000000000E+00  0.50000499739E+01  0.50000500000E+01  0.51100000000E-03 0. -1.
         11   -1    0    0    0    0 -0.00000000000E+00 -0.00000000000E+00 -0.50000499739E+01  0.50000500000E+01  0.51100000000E-03 0.  1.
         50    1    1    2    0    0  0.10104519595E-01  0.90940272214E-03  0.19926720012E-01  0.50000500000E+01  0.50000000000E+01 0. -1.
         50    1    1    2    0    0 -0.10104519595E-01 -0.90940272214E-03 -0.19926720012E-01  0.50000500000E+01  0.50000000000E+01 0.  0.
</event>
<event>
 4    1  0.5060607E-021  0.5000050E+01  0.7818608E-02  0.2136455E+00
        -11   -1    0    0    0    0  0.00000000000E+00  0.00000000000E+00  0.50000499739E+01  0.50000500000E+01  0.51100000000E-03 0.  1.
         11   -1    0    0    0    0 -0.00000000000E+00 -0.00000000000E+00 -0.50000499739E+01  0.50000500000E+01  0.51100000000E-03 0. -1.
         50    1    1    2    0    0  0.18306203867E-01  0.12564092602E-01  0.26512218023E-02  0.50000500000E+01  0.50000000000E+01 0. -1.
         50    1    1    2    0    0 -0.18306203867E-01 -0.12564092602E-01 -0.26512218023E-02  0.50000500000E+01  0.50000000000E+01 0.  1.
</event>
<event>
 4    1  0.5060607E-021  0.5000050E+01  0.7818608E-02  0.2136455E+00
        -11   -1    0    0    0    0  0.00000000000E+00  0.00000000000E+00  0.50000499739E+01  0.50000500000E+01  0.51100000000E-03 0. -1.
         11   -1    0    0    0    0 -0.00000000000E+00 -0.00000000000E+00 -0.50000499739E+01  0.50000500000E+01  0.51100000000E-03 0.  1.
         50    1    1    2    0    0 -0.15772268606E-01  0.15548869448E-01 -0.30774505509E-02  0.50000500000E+01  0.50000000000E+01 0.  1.
         50    1    1    2    0    0  0.15772268606E-01 -0.15548869448E-01  0.30774505509E-02  0.50000500000E+01  0.50000000000E+01 0. -1.
</event>
<event>
 4    1  0.5060607E-021  0.5000050E+01  0.7818608E-02  0.2136455E+00
        -11   -1    0    0    0    0  0.00000000000E+00  0.00000000000E+00  0.50000499739E+01  0.50000500000E+01  0.51100000000E-03 0. -1.
         11   -1    0    0    0    0 -0.00000000000E+00 -0.00000000000E+00 -0.50000499739E+01  0.50000500000E+01  0.51100000000E-03 0.  1.
         50    1    1    2    0    0 -0.29682373157E-02 -0.10973734391E-01 -0.19255368622E-01  0.50000500000E+01  0.50000000000E+01 0.  1.
         50    1    1    2    0    0  0.29682373157E-02  0.10973734391E-01  0.19255368622E-01  0.50000500000E+01  0.50000000000E+01 0.  0.
</event>
<event>
 4    1  0.5060607E-021  0.5000050E+01  0.7818608E-02  0.2136455E+00
        -11   -1    0    0    0    0  0.00000000000E+00  0.00000000000E+00  0.50000499739E+01  0.50000500000E+01  0.51100000000E-03 0. -1.
         11   -1    0    0    0    0 -0.00000000000E+00 -0.00000000000E+00 -0.50000499739E+01  0.50000500000E+01  0.51100000000E-03 0.  1.
         50    1    1    2    0    0 -0.11162471789E-01  0.16521930907E-01 -0.10120648332E-01  0.50000500000E+01  0.50000000000E+01 0.  1.
         50    1    1    2    0    0  0.11162471789E-01 -0.16521930907E-01  0.10120648332E-01  0.50000500000E+01  0.50000000000E+01 0. -1.
</event>
<event>
 4    1  0.5060607E-021  0.5000050E+01  0.7818608E-02  0.2136455E+00
        -11   -1    0    0    0    0  0.00000000000E+00  0.00000000000E+00  0.50000499739E+01  0.50000500000E+01  0.51100000000E-03 0. -1.
         11   -1    0    0    0    0 -0.00000000000E+00 -0.00000000000E+00 -0.50000499739E+01  0.50000500000E+01  0.51100000000E-03 0.  1.
         50    1    1    2    0    0 -0.72221198622E-02  0.21154782038E-01 -0.56451894118E-03  0.50000500000E+01  0.50000000000E+01 0.  0.
         50    1    1    2    0    0  0.72221198622E-02 -0.21154782038E-01  0.56451894118E-03  0.50000500000E+01  0.50000000000E+01 0.  1.
</event>
<event>
 4    1  0.5060607E-021  0.5000050E+01  0.7818608E-02  0.2136455E+00
        -11   -1    0    0    0    0  0.00000000000E+00  0.00000000000E+00  0.50000499739E+01  0.50000500000E+01  0.51100000000E-03 0.  1.
         11   -1    0    0    0    0 -0.00000000000E+00 -0.00000000000E+00 -0.50000499739E+01  0.50000500000E+01  0.51100000000E-03 0. -1.
         50    1    1    2    0    0  0.71093097064E-02  0.27883581975E-02 -0.21016309715E-01  0.50000500000E+01  0.50000000000E+01 0. -1.
         50    1    1    2    0    0 -0.71093097064E-02 -0.27883581975E-02  0.21016309715E-01  0.50000500000E+01  0.50000000000E+01 0.  1.
</event>
<event>
 4    1  0.5060607E-021  0.5000050E+01  0.7818608E-02  0.2136455E+00
        -11   -1    0    0    0    0  0.00000000000E+00  0.00000000000E+00  0.50000499739E+01  0.50000500000E+01  0.51100000000E-03 0. -1.
         11   -1    0    0    0    0 -0.00000000000E+00 -0.00000000000E+00 -0.50000499739E+01  0.50000500000E+01  0.51100000000E-03 0.  1.
         50    1    1    2    0    0 -0.12936648146E-01  0.13492657897E-02 -0.18188598532E-01  0.50000500000E+01  0.50000000000E+01 0. -1.
         50    1    1    2    0    0  0.12936648146E-01 -0.13492657897E-02  0.18188598532E-01  0.50000500000E+01  0.50000000000E+01 0.  0.
</event>
<event>
 4    1  0.5060607E-021  0.5000050E+01  0.7818608E-02  0.2136455E+00
        -11   -1    0    0    0    0  0.00000000000E+00  0.00000000000E+00  0.50000499739E+01  0.50000500000E+01  0.51100000000E-03 0.  1.
         11   -1    0    0    0    0 -0.00000000000E+00 -0.00000000000E+00 -0.50000499739E+01  0.50000500000E+01  0.51100000000E-03 0. -1.
         50    1    1    2    0    0  0.22236979678E-01  0.35223453028E-03 -0.23227495816E-02  0.50000500000E+01  0.50000000000E+01 0. -1.
         50    1    1    2    0    0 -0.22236979678E-01 -0.35223453028E-03  0.23227495816E-02  0.50000500000E+01  0.50000000000E+01 0.  1.
</event>
<event>
 4    1  0.5060607E-021  0.5000050E+01  0.7818608E-02  0.2136455E+00
        -11   -1    0    0    0    0  0.00000000000E+00  0.00000000000E+00  0.50000499739E+01  0.50000500000E+01  0.51100000000E-03 0.  1.
         11   -1    0    0    0    0 -0.00000000000E+00 -0.00000000000E+00 -0.50000499739E+01  0.50000500000E+01  0.51100000000E-03 0. -1.
         50    1    1    2    0    0  0.31750514153E-02  0.89501925285E-02  0.20243902840E-01  0.50000500000E+01  0.50000000000E+01 0.  1.
         50    1    1    2    0    0 -0.31750514153E-02 -0.89501925285E-02 -0.20243902840E-01  0.50000500000E+01  0.50000000000E+01 0.  0.
</event>
<event>
 4    1  0.5060607E-021  0.5000050E+01  0.7818608E-02  0.2136455E+00
        -11   -1    0    0    0    0  0.00000000000E+00  0.00000000000E+00  0.50000499739E+01  0.50000500000E+01  0.51100000000E-03 0. -1.
         11   -1    0    0    0    0 -0.00000000000E+00 -0.00000000000E+00 -0.50000499739E+01  0.50000500000E+01  0.51100000000E-03 0.  1.
         50    1    1    2    0    0  0.19125287968E-01  0.84542823170E-02 -0.79215510261E-02  0.50000500000E+01  0.50000000000E+01 0.  1.
         50    1    1    2    0    0 -0.19125287968E-01 -0.84542823170E-02  0.79215510261E-02  0.50000500000E+01  0.50000000000E+01 0. -1.
</event>
